 Entering Gaussian System, Link 0=g16
 Input=oniom_A_ici_e1.gjf
 Output=oniom_A_ici_e1.log
 Initial command:
 /opt/g16/l1.exe "/media/jsolorza/Sera/TAO/Nueva_Chain_A/ICI/Estimacion_energia/Gau-1004650.inp" -scrdir="/media/jsolorza/Sera/TAO/Nueva_Chain_A/ICI/Estimacion_energia/"
 Entering Link 1 = /opt/g16/l1.exe PID=   1004655.
  
 Copyright (c) 1988,1990,1992,1993,1995,1998,2003,2009,2016,
            Gaussian, Inc.  All Rights Reserved.
  
 This is part of the Gaussian(R) 16 program.  It is based on
 the Gaussian(R) 09 system (copyright 2009, Gaussian, Inc.),
 the Gaussian(R) 03 system (copyright 2003, Gaussian, Inc.),
 the Gaussian(R) 98 system (copyright 1998, Gaussian, Inc.),
 the Gaussian(R) 94 system (copyright 1995, Gaussian, Inc.),
 the Gaussian 92(TM) system (copyright 1992, Gaussian, Inc.),
 the Gaussian 90(TM) system (copyright 1990, Gaussian, Inc.),
 the Gaussian 88(TM) system (copyright 1988, Gaussian, Inc.),
 the Gaussian 86(TM) system (copyright 1986, Carnegie Mellon
 University), and the Gaussian 82(TM) system (copyright 1983,
 Carnegie Mellon University). Gaussian is a federally registered
 trademark of Gaussian, Inc.
  
 This software contains proprietary and confidential information,
 including trade secrets, belonging to Gaussian, Inc.
  
 This software is provided under written license and may be
 used, copied, transmitted, or stored only in accord with that
 written license.
  
 The following legend is applicable only to US Government
 contracts under FAR:
  
                    RESTRICTED RIGHTS LEGEND
  
 Use, reproduction and disclosure by the US Government is
 subject to restrictions as set forth in subparagraphs (a)
 and (c) of the Commercial Computer Software - Restricted
 Rights clause in FAR 52.227-19.
  
 Gaussian, Inc.
 340 Quinnipiac St., Bldg. 40, Wallingford CT 06492
  
  
 ---------------------------------------------------------------
 Warning -- This program may not be used in any manner that
 competes with the business of Gaussian, Inc. or will provide
 assistance to any competitor of Gaussian, Inc.  The licensee
 of this program is prohibited from giving any competitor of
 Gaussian, Inc. access to this program.  By using this program,
 the user acknowledges that Gaussian, Inc. is engaged in the
 business of creating and licensing software in the field of
 computational chemistry and represents and warrants to the
 licensee that it is not a competitor of Gaussian, Inc. and that
 it will not use this program in any manner prohibited above.
 ---------------------------------------------------------------
  

 Cite this work as:
 Gaussian 16, Revision A.03,
 M. J. Frisch, G. W. Trucks, H. B. Schlegel, G. E. Scuseria, 
 M. A. Robb, J. R. Cheeseman, G. Scalmani, V. Barone, 
 G. A. Petersson, H. Nakatsuji, X. Li, M. Caricato, A. V. Marenich, 
 J. Bloino, B. G. Janesko, R. Gomperts, B. Mennucci, H. P. Hratchian, 
 J. V. Ortiz, A. F. Izmaylov, J. L. Sonnenberg, D. Williams-Young, 
 F. Ding, F. Lipparini, F. Egidi, J. Goings, B. Peng, A. Petrone, 
 T. Henderson, D. Ranasinghe, V. G. Zakrzewski, J. Gao, N. Rega, 
 G. Zheng, W. Liang, M. Hada, M. Ehara, K. Toyota, R. Fukuda, 
 J. Hasegawa, M. Ishida, T. Nakajima, Y. Honda, O. Kitao, H. Nakai, 
 T. Vreven, K. Throssell, J. A. Montgomery, Jr., J. E. Peralta, 
 F. Ogliaro, M. J. Bearpark, J. J. Heyd, E. N. Brothers, K. N. Kudin, 
 V. N. Staroverov, T. A. Keith, R. Kobayashi, J. Normand, 
 K. Raghavachari, A. P. Rendell, J. C. Burant, S. S. Iyengar, 
 J. Tomasi, M. Cossi, J. M. Millam, M. Klene, C. Adamo, R. Cammi, 
 J. W. Ochterski, R. L. Martin, K. Morokuma, O. Farkas, 
 J. B. Foresman, and D. J. Fox, Gaussian, Inc., Wallingford CT, 2016.
 
 ******************************************
 Gaussian 16:  ES64L-G16RevA.03 25-Dec-2016
                14-Apr-2025 
 ******************************************
 %chk=ICI.chk
 %mem=8gb
 %nprocshared=10
 Will use up to   10 processors via shared memory.
 ----------------------------------------------------------------------
 #p oniom(m062x/cc-pvtz:amber=hardfirst)=embedCharge nosymm geom=connec
 tivity iop(2/15=3) test
 ----------------------------------------------------------------------
 1/38=1,52=12,56=2,57=2,61=3,64=103,74=500,172=1/1;
 2/12=2,15=3,17=6,18=5,40=1/2;
 1/38=1,52=12,53=3172,61=3,64=103,74=500/20;
 3/5=30,11=9,25=1,30=1,41=10300000,43=2/1;
 4/20=11,24=3/2;
 1/52=12,53=2032,61=3,74=500/20;
 3/5=16,6=1,11=2,25=1,30=1,74=-55/1,2,3;
 4//1;
 5/5=2,38=5/2;
 6/7=2,8=2,9=2,10=2,28=1/1;
 1/52=12,53=1022,61=3,64=103,74=500/20;
 3/5=30,11=9,25=1,30=1,41=10300000,43=2/1;
 4/20=11,24=3/2;
 1/52=12,53=3014,61=3,64=103,74=500/20;
 99/5=1,9=1/99;
 Leave Link    1 at Mon Apr 14 15:46:30 2025, MaxMem=  1073741824 cpu:              23.0 elap:               2.6
 (Enter /opt/g16/l101.exe)
 ---
 ICI
 ---
 Symbolic Z-matrix:
 Charge =  3 Multiplicity = 2 for low   level calculation on real  system.
 Charge =  2 Multiplicity = 1 for high  level calculation on model system.
 Charge =  1 Multiplicity = 2 for low   level calculation on model system.
 N-N--0.130500        -1    131.299   92.731    26.828   L 
 H-H-0.208300         -1    131.17    93.007    27.792   L 
 H-H-0.208300         -1    132.263   92.759    26.529   L 
 H-H-0.208300         -1    131.187   91.728    26.808   L 
 C-CT--0.022300       -1    130.31    93.32     25.958   L 
 H-H1-0.124200        -1    129.338   92.943    26.274   L 
 C-CT-0.011800        -1    129.91    94.838    26.002   L 
 H-HC-0.022600        -1    130.796   95.466    25.905   L 
 H-HC-0.022600        -1    129.206   95.011    25.188   L 
 C-CT-0.023600        -1    129.139   95.263    27.305   L 
 H-HC-0.030900        -1    128.224   94.675    27.376   L 
 H-HC-0.030900        -1    129.678   95.111    28.241   L 
 C-CT-0.093500        -1    128.674   96.703    27.142   L 
 H-H1-0.052700        -1    128.114   96.741    26.208   L 
 H-H1-0.052700        -1    128.045   96.895    28.011   L 
 N-N2--0.565000       -1    129.73    97.76     27.032   L 
 H-H-0.359200         -1    129.819   98.106    26.088   L 
 C-CA-0.828100        -1    130.607   98.257    27.907   L 
 N-N2--0.869300       -1    130.687   97.845    29.157   L 
 H-H-0.449400         -1    130.194   97.052    29.542   L 
 H-H-0.449400         -1    131.331   98.404    29.699   L 
 N-N2--0.869399       -1    131.428   99.214    27.554   L 
 H-H-0.449400         -1    131.207   99.744    26.723   L 
 H-H-0.449400         -1    132.059   99.656    28.207   L 
 C-C-0.721400         -1    130.331   92.814    24.577   L 
 O-O--0.601300        -1    131.394   92.369    24.147   L 
 N-N--0.528120        -1    129.224   92.828    23.841   L 
 H-H-0.281695         -1    128.39    93.085    24.351   L 
 C-CT-0.031249        -1    129.022   92.365    22.421   L 
 H-H1-0.085175        -1    130.036   92.44     22.029   L 
 C-CT--0.152267       -1    128.764   90.868    22.486   L 
 H-HC-0.054608        -1    129.194   90.592    23.448   L 
 H-HC-0.054608        -1    127.685   90.72     22.507   L 
 C-CC-0.278406        -1    129.316   90.076    21.425   L 
 N-NB--0.423316       -1    128.729   89.943    20.132   L 
 C-CR-0.025960        -1    129.545   89.112    19.387   L 
 H-H5-0.126832        -1    129.327   88.674    18.424   L 
 N-NA--0.097984       -1    130.558   88.605    20.228   L 
 H-H-0.266865         -1    131.295   87.945    20.024   L 
 C-CW--0.297563       -1    130.438   89.281    21.453   L 
 H-H4-0.160413        -1    131.06    89.045    22.304   L 
 C-C-0.662405         -1    127.943   93.145    21.682   L 
 O-O--0.528966        -1    126.951   93.549    22.344   L 
 N-N--0.088116        -1    128.111   93.281    20.342   L 
 C-CT--0.011906       -1    129.359   93.2      19.571   L 
 H-H1-0.043951        -1    129.907   92.303    19.859   L 
 H-H1-0.043950        -1    130.032   94.042    19.731   L 
 C-CT-0.013059        -1    128.876   93.153    18.082   L 
 H-HC-0.019574        -1    128.559   92.126    17.898   L 
 H-HC-0.019574        -1    129.728   93.552    17.532   L 
 C-CT--0.003351       -1    127.77    94.14     18.129   L 
 H-HC-0.019352        -1    127.023   94.024    17.344   L 
 H-HC-0.019352        -1    128.349   95.055    18.256   L 
 C-CT--0.034577       -1    127.081   93.858    19.469   L 
 H-H1-0.059977        -1    126.783   94.789    19.951   L 
 C-C-0.333720         -1    125.789   92.92     19.337   L 
 O-O--0.434559        -1    124.682   93.414    19.447   L 
 N-N--0.355153        -1    126.027   91.611    19.279   L 
 H-H-0.262417         -1    126.967   91.254    19.371   L 
 C-CT--0.101497       -1    124.975   90.592    19.217   L 
 H-H1-0.136951        -1    124.232   90.772    18.44    L 
 C-CT--0.144399       -1    125.655   89.198    19.026   L 
 H-HC-0.052533        -1    126.417   88.983    19.776   L 
 H-HC-0.052533        -1    124.909   88.425    19.21    L 
 C-CT-0.191982        -1    126.207   88.856    17.64    L 
 H-HC-0.000825        -1    127.148   89.377    17.465   L 
 C-CT--0.123036       -1    126.466   87.373    17.556   L 
 H-HC-0.022376        -1    125.535   86.817    17.664   L 
 H-HC-0.022376        -1    126.917   87.159    16.587   L 
 H-HC-0.022376        -1    127.226   87.127    18.297   L 
 C-CT--0.123036       -1    125.169   89.082    16.519   L 
 H-HC-0.022376        -1    125.635   88.989    15.538   L 
 H-HC-0.022376        -1    124.254   88.518    16.698   L 
 H-HC-0.022376        -1    124.926   90.144    16.519   L 
 C-C-0.573471         -1    124.204   90.492    20.578   L 
 O-O--0.557847        -1    123.289   89.679    20.732   L 
 N-N--0.387353        -1    124.631   91.32     21.56    L 
 H-H-0.300605         -1    125.373   91.977    21.364   L 
 C-CT-0.037470        -1    123.919   91.348    22.824   L 
 H-H1-0.152255        -1    123.027   90.727    22.74    L 
 C-CT--0.032112       -1    124.763   90.9      23.994   L 
 H-HC-0.030995        -1    125.651   91.528    24.063   L 
 H-HC-0.030995        -1    124.134   91.03     24.875   L 
 C-CT--0.020264       -1    125.189   89.443    23.89    L 
 H-HC-0.030791        -1    124.348   88.777    24.083   L 
 H-HC-0.030791        -1    125.454   89.169    22.869   L 
 C-C-0.667812         -1    126.154   89.028    24.947   L 
 O-O--0.628483        -1    127.331   88.746    24.623   L 
 N-N--0.883393        -1    125.715   89.016    26.218   L 
 H-H-0.408312         -1    126.329   88.653    26.932   L 
 H-H-0.408312         -1    124.717   89.161    26.287   L 
 C-C-0.418577         -1    123.367   92.791    23.068   L 
 O-O--0.565310        -1    122.218   92.907    23.537   L 
 N-N--0.404773        -1    124.004   93.816    22.566   L 
 H-H-0.294276         -1    124.867   93.61     22.084   L 
 C-CT--0.027733       -1    123.515   95.191    22.655   L 
 H-H1-0.120802        -1    122.965   95.39     23.575   L 
 C-CT--0.229951       -1    124.726   96.17     22.646   L 
 H-HC-0.077428        -1    125.271   96.061    21.709   L 
 H-HC-0.077428        -1    124.449   97.222    22.705   L 
 H-HC-0.077428        -1    125.348   95.944    23.512   L 
 C-C-0.570224         -1    122.623   95.548    21.562   L 
 O-O--0.555129        -1    121.625   96.194    21.845   L 
 N-N--0.355153        -1    122.812   95.131    20.288   L 
 H-H-0.262417         -1    123.663   94.694    19.963   L 
 C-CT--0.101497       -1    121.895   95.41     19.215   L 
 H-H1-0.136951        -1    121.51    96.43     19.239   L 
 C-CT--0.144399       -1    122.537   95.169    17.823   L 
 H-HC-0.052533        -1    123.509   95.661    17.834   L 
 H-HC-0.052533        -1    122.714   94.094    17.796   L 
 C-CT-0.191982        -1    121.627   95.557    16.659   L 
 H-HC-0.000825        -1    120.88    96.264    17.021   L 
 C-CT--0.123036       -1    122.491   96.375    15.696   L 
 H-HC-0.022376        -1    123.162   95.642    15.248   L 
 H-HC-0.022376        -1    121.876   96.977    15.027   L 
 H-HC-0.022376        -1    123.076   97.11     16.249   L 
 C-CT--0.123036       -1    121.017   94.377    15.953   L 
 H-HC-0.022376        -1    120.403   94.717    15.118   L 
 H-HC-0.022376        -1    121.838   93.711    15.687   L 
 H-HC-0.022376        -1    120.341   93.833    16.613   L 
 C-C-0.573471         -1    120.67    94.55     19.397   L 
 O-O--0.557847        -1    119.581   95.028    18.962   L 
 N-N--0.371290        -1    120.659   93.345    20.063   L 
 H-H-0.234053         -1    121.566   93.065    20.407   L 
 C-CT--0.030057       -1    119.548   92.601    20.563   L 
 H-H1-0.102448        -1    118.909   92.211    19.771   L 
 C-CT--0.098720       -1    120.006   91.397    21.314   L 
 H-HC-0.060989        -1    120.574   90.781    20.616   L 
 H-HC-0.060989        -1    120.748   91.73     22.04    L 
 C-CA-0.021313        -1    118.938   90.458    21.931   L 
 C-CA--0.083109       -1    118.073   89.627    21.188   L 
 H-HA-0.098466        -1    118.161   89.57     20.114   L 
 C-CA--0.156974       -1    117.113   88.869    21.87    L 
 H-HA-0.123731        -1    116.443   88.181    21.375   L 
 C-CA--0.099824       -1    117.04    88.92     23.238   L 
 H-HA-0.114679        -1    116.299   88.304    23.726   L 
 C-CA--0.156974       -1    117.771   89.837    24.014   L 
 H-HA-0.123731        -1    117.656   89.864    25.087   L 
 C-CA--0.083109       -1    118.782   90.547    23.376   L 
 H-HA-0.098466        -1    119.458   91.168    23.945   L 
 C-C-0.547987         -1    118.722   93.525    21.449   L 
 O-O--0.506795        -1    117.486   93.568    21.158   L 
 N-N--0.451047        -1    119.331   94.293    22.385   L 
 H-H-0.328831         -1    120.286   94.247    22.712   L 
 C-CT--0.101874       -1    118.558   95.266    23.198   L 
 H-H1-0.174193        -1    117.643   94.824    23.592   L 
 C-CT-0.062238        -1    119.483   95.666    24.457   L 
 H-HC-0.061662        -1    120.539   95.704    24.189   L 
 C-CT--0.129989       -1    119.044   97.066    25.023   L 
 H-HC-0.030227        -1    119.532   97.847    24.438   L 
 H-HC-0.030227        -1    117.957   97.133    24.967   L 
 H-HC-0.030227        -1    119.406   97.233    26.037   L 
 C-CT-0.022230        -1    119.346   94.593    25.616   L 
 H-HC-0.011551        -1    120.      93.745    25.414   L 
 H-HC-0.011551        -1    119.893   95.096    26.414   L 
 C-CT--0.101251       -1    117.909   94.137    26.118   L 
 H-HC-0.023792        -1    117.903   93.053    25.999   L 
 H-HC-0.023792        -1    117.787   94.464    27.15    L 
 H-HC-0.023792        -1    117.067   94.471    25.511   L 
 C-C-0.569383         -1    118.102   96.456    22.382   L 
 O-O--0.619535        -1    116.942   96.839    22.51    L 
 N-N--0.427579        -1    118.94    97.066    21.486   L 
 H-H-0.241716         -1    119.859   96.679    21.326   L 
 C-CT--0.020082       -1    118.482   98.185    20.568   L 
 H-H1-0.106629        -1    118.108   98.953    21.244   L 
 C-CT--0.098364       -1    119.674   98.65     19.802   L 
 H-HC-0.065424        -1    119.886   97.808    19.144   L 
 H-HC-0.065424        -1    119.373   99.482    19.165   L 
 C-C*--0.099797       -1    120.925   99.037    20.39    L 
 C-CW--0.174053       -1    121.109   99.219    21.717   L 
 H-H4-0.170633        -1    120.346   99.149    22.479   L 
 N-NA--0.298433       -1    122.445   99.555    21.949   L 
 H-H-0.322375         -1    122.839   99.714    22.865   L 
 C-CN-0.141523        -1    123.229   99.397    20.841   L 
 C-CA--0.210701       -1    124.592   99.461    20.595   L 
 H-HA-0.125512        -1    125.327   99.687    21.353   L 
 C-CA--0.133022       -1    125.096   99.081    19.264   L 
 H-HA-0.119467        -1    126.143   99.122    19.004   L 
 C-CA--0.164054       -1    124.178   98.656    18.323   L 
 H-HA-0.119250        -1    124.543   98.259    17.387   L 
 C-CA--0.153992       -1    122.801   98.691    18.577   L 
 H-HA-0.123084        -1    122.133   98.425    17.771   L 
 C-CB-0.089641        -1    122.259   99.071    19.811   L 
 C-C-0.584129         -1    117.23    97.704    19.794   L 
 O-O--0.494730        -1    116.29    98.459    19.872   L 
 N-N--0.404773        -1    117.236   96.477    19.257   L 
 H-H-0.294276         -1    118.089   95.936    19.271   L 
 C-CT--0.027733       -1    116.16    95.867    18.408   L 
 H-H1-0.120802        -1    115.968   96.695    17.726   L 
 C-CT--0.229951       -1    116.574   94.564    17.68    L 
 H-HC-0.077428        -1    117.442   94.694    17.033   L 
 H-HC-0.077428        -1    116.701   93.746    18.389   L 
 H-HC-0.077428        -1    115.705   94.383    17.048   L 
 C-C-0.570224         -1    114.84    95.637    19.173   L 
 O-O--0.555129        -1    113.847   95.684    18.551   L 
 N-N--0.451047        -1    114.888   95.283    20.457   L 
 H-H-0.328831         -1    115.743   94.985    20.905   L 
 C-CT--0.101874       -1    113.682   95.209    21.295   L 
 H-H1-0.174193        -1    112.807   94.961    20.693   L 
 C-CT-0.062238        -1    113.889   94.166    22.385   L 
 H-HC-0.061662        -1    114.883   94.258    22.822   L 
 C-CT--0.129989       -1    112.721   94.23     23.425   L 
 H-HC-0.030227        -1    112.698   95.265    23.767   L 
 H-HC-0.030227        -1    111.799   94.157    22.847   L 
 H-HC-0.030227        -1    112.798   93.465    24.198   L 
 C-CT-0.022230        -1    113.832   92.73     21.677   L 
 H-HC-0.011551        -1    112.825   92.656    21.266   L 
 H-HC-0.011551        -1    114.658   92.757    20.966   L 
 C-CT--0.101251       -1    113.94    91.462    22.562   L 
 H-HC-0.023792        -1    113.964   90.679    21.804   L 
 H-HC-0.023792        -1    114.706   91.561    23.331   L 
 H-HC-0.023792        -1    112.986   91.337    23.073   L 
 C-C-0.569383         -1    113.213   96.588    21.73    L 
 O-O--0.619535        -1    112.026   96.863    21.525   L 
 N-N--0.355153        -1    114.117   97.477    22.142   L 
 H-H-0.262417         -1    115.098   97.238    22.15    L 
 C-CT--0.101497       -1    113.752   98.85     22.432   L 
 H-H1-0.136951        -1    112.901   98.872    23.113   L 
 C-CT--0.144399       -1    114.962   99.441    23.293   L 
 H-HC-0.052533        -1    115.904   99.335    22.755   L 
 H-HC-0.052533        -1    114.814   100.516   23.396   L 
 C-CT-0.191982        -1    115.166   98.772    24.684   L 
 H-HC-0.000825        -1    115.136   97.686    24.597   L 
 C-CT--0.123036       -1    116.527   99.249    25.261   L 
 H-HC-0.022376        -1    116.65    98.897    26.285   L 
 H-HC-0.022376        -1    117.4     99.084    24.629   L 
 H-HC-0.022376        -1    116.554   100.328   25.411   L 
 C-CT--0.123036       -1    114.003   99.217    25.641   L 
 H-HC-0.022376        -1    113.146   98.546    25.579   L 
 H-HC-0.022376        -1    114.336   99.009    26.658   L 
 H-HC-0.022376        -1    113.757   100.278   25.696   L 
 C-C-0.573471         -1    113.334   99.679    21.209   L 
 O-O--0.557847        -1    112.565   100.615   21.426   L 
 N-N--0.387353        -1    113.66    99.273    19.97    L 
 H-H-0.300605         -1    114.463   98.66     19.984   L 
 C-CT-0.037470        -1    113.223   99.964    18.695   L 
 H-H1-0.152255        -1    112.885   100.971   18.941   L 
 C-CT--0.032112       -1    114.457   99.988    17.749   L 
 H-HC-0.030995        -1    115.085   99.098    17.777   L 
 H-HC-0.030995        -1    114.046   100.118   16.747   L 
 C-CT--0.020264       -1    115.297   101.219   18.023   L 
 H-HC-0.030791        -1    114.729   102.117   17.777   L 
 H-HC-0.030791        -1    115.558   101.297   19.078   L 
 C-C-0.667812         -1    116.589   101.172   17.288   L 
 O-O--0.628483        -1    116.724   100.474   16.301   L 
 N-N--0.883393        -1    117.498   101.982   17.635   L 
 H-H-0.408312         -1    118.363   101.91    17.118   L 
 H-H-0.408312         -1    117.333   102.656   18.369   L 
 C-C-0.418577         -1    112.076   99.191    18.036   L 
 O-O--0.565310        -1    111.74    99.514    16.897   L 
 N-N--0.430106        -1    111.413   98.195    18.69    L 
 H-H-0.254543         -1    111.693   97.887    19.611   L 
 C-CT-0.044609        -1    110.295   97.511    18.162   L 
 H-H1-0.059601        -1    110.173   96.775    18.957   L 
 C-CT--0.093650       -1    109.048   98.428    18.201   L 
 H-HC-0.043321        -1    109.129   99.086    19.066   L 
 H-HC-0.043321        -1    108.931   99.047    17.311   L 
 C-C-0.583519         -1    107.808   97.595    18.436   L 
 O-O--0.526813        -1    106.909   97.632    17.618   L 
 N-N--0.781735        -1    107.778   96.777    19.482   L 
 H-H-0.355079         -1    107.046   96.084    19.546   L 
 H-H-0.355079         -1    108.385   96.901    20.28    L 
 C-C-0.617141         -1    110.391   96.727    16.819   L 
 O-O--0.523909        -1    109.396   96.511    16.098   L 
 N-N--0.435875        -1    111.588   96.179    16.552   L 
 H-H-0.251302         -1    112.331   96.286    17.227   L 
 C-CT--0.038773       -1    111.983   95.489    15.329   L 
 H-H1-0.129478        -1    111.239   95.849    14.619   L 
 C-CT--0.108273       -1    113.321   96.086    14.945   L 
 H-HC-0.045214        -1    114.022   96.122    15.779   L 
 H-HC-0.045214        -1    113.73    95.392    14.21    L 
 C-CT-0.033341        -1    113.315   97.48     14.42    L 
 H-HC-0.010208        -1    112.791   97.505    13.464   L 
 H-HC-0.010208        -1    112.856   98.109    15.182   L 
 C-CT--0.047841       -1    114.673   98.081    14.201   L 
 H-HC-0.070715        -1    115.181   98.086    15.165   L 
 H-HC-0.070715        -1    115.214   97.485    13.466   L 
 C-CT--0.069974       -1    114.538   99.537    13.692   L 
 H-HP-0.119522        -1    114.063   99.468    12.713   L 
 H-HP-0.119522        -1    113.852   99.963    14.424   L 
 N-N3--0.250358       -1    115.86    100.277   13.729   L 
 H-H-0.294561         -1    115.609   101.173   13.337   L 
 H-H-0.294561         -1    116.251   100.343   14.658   L 
 H-H-0.294561         -1    116.532   99.866    13.097   L 
 C-C-0.725129         -1    111.81    93.971    15.45    L 
 O-O--0.563157        -1    112.689   93.265    15.919   L 
 N-N--0.435875        -1    110.659   93.402    15.177   L 
 H-H-0.251302         -1    109.948   94.076    14.933   L 
 C-CT--0.038773       -1    110.152   92.103    15.703   L 
 H-H1-0.129478        -1    110.18    92.099    16.793   L 
 C-CT--0.108273       -1    108.659   92.015    15.449   L 
 H-HC-0.045214        -1    108.447   91.949    14.382   L 
 H-HC-0.045214        -1    108.287   91.108    15.926   L 
 C-CT-0.033341        -1    107.805   93.208    16.076   L 
 H-HC-0.010208        -1    107.912   93.17     17.16    L 
 H-HC-0.010208        -1    108.153   94.169    15.698   L 
 C-CT--0.047841       -1    106.258   92.939    15.942   L 
 H-HC-0.070715        -1    105.94    92.013    16.421   L 
 H-HC-0.070715        -1    105.777   93.699    16.557   L 
 C-CT--0.069974       -1    105.755   92.901    14.504   L 
 H-HP-0.119522        -1    105.855   93.903    14.087   L 
 H-HP-0.119522        -1    106.275   92.213    13.838   L 
 N-N3--0.250358       -1    104.33    92.479    14.459   L 
 H-H-0.294561         -1    103.788   93.03     15.109   L 
 H-H-0.294561         -1    103.89    92.432    13.551   L 
 H-H-0.294561         -1    104.331   91.534    14.816   L 
 C-C-0.725129         -1    110.858   90.92     15.107   L 
 O-O--0.563157        -1    110.93    89.997    15.896   L 
 N-N--0.423392        -1    111.408   90.921    13.847   L 
 H-H-0.306811         -1    111.386   91.774    13.307   L 
 C-CT-0.031633        -1    112.233   89.77     13.396   L 
 H-H1-0.065100        -1    111.867   88.901    13.942   L 
 C-CT-0.074772        -1    112.008   89.601    11.891   L 
 H-HC--0.003535       -1    110.942   89.724    11.699   L 
 H-HC--0.003535       -1    112.531   90.388    11.347   L 
 C-CT--0.033909       -1    112.51    88.25     11.43    L 
 H-HC--0.004135       -1    113.595   88.219    11.538   L 
 H-HC--0.004135       -1    112.011   87.475    12.012   L 
 C-C-0.765188         -1    112.149   88.039    9.957    L 
 O-O2--0.824035       -1    112.836   88.511    9.063    L 
 O-O2--0.824035       -1    111.105   87.455    9.672    L 
 C-C-0.469735         -1    113.686   89.956    13.768   L 
 O-O--0.592528        -1    114.371   88.908    14.003   L 
 N-N--0.355153        -1    114.187   91.204    13.781   L 
 H-H-0.262417         -1    113.561   91.993    13.717   L 
 C-CT--0.101497       -1    115.632   91.561    13.899   L 
 H-H1-0.136951        -1    116.221   91.088    13.114   L 
 C-CT--0.144399       -1    115.724   93.094    13.617   L 
 H-HC-0.052533        -1    115.635   93.228    12.539   L 
 H-HC-0.052533        -1    115.019   93.677    14.209   L 
 C-CT-0.191982        -1    117.138   93.672    13.962   L 
 H-HC-0.000825        -1    117.457   93.529    14.994   L 
 C-CT--0.123036       -1    118.195   93.105    12.979   L 
 H-HC-0.022376        -1    118.224   92.028    13.142   L 
 H-HC-0.022376        -1    117.753   93.217    11.989   L 
 H-HC-0.022376        -1    119.165   93.565    13.171   L 
 C-CT--0.123036       -1    117.094   95.194    13.871   L 
 H-HC-0.022376        -1    116.239   95.625    14.392   L 
 H-HC-0.022376        -1    117.91    95.838    14.199   L 
 H-HC-0.022376        -1    116.87    95.284    12.808   L 
 C-C-0.573471         -1    116.26    91.017    15.2     L 
 O-O--0.557847        -1    117.326   90.299    15.159   L 
 N-N--0.541430        -1    115.581   91.08     16.301   L 
 H-H-0.345415         -1    114.707   91.586    16.27    L 
 C-CT-0.118140        -1    115.903   90.409    17.582   L 
 H-H1-0.142177        -1    116.884   90.656    17.989   L 
 C-CT-0.146998        -1    114.889   90.774    18.664   L 
 H-H1-0.040081        -1    115.025   90.35     19.659   L 
 H-H1-0.040081        -1    115.007   91.797    19.022   L 
 O-OH--0.640312       -1    113.553   90.488    18.248   L 
 H-HO-0.446255        -1    113.027   91.291    18.289   L 
 C-C-0.483424         -1    115.963   88.908    17.533   L 
 O-O--0.580829        -1    116.909   88.329    18.081   L 
 N-N--0.435875        -1    115.126   88.22     16.721   L 
 H-H-0.251302         -1    114.387   88.778    16.317   L 
 C-CT--0.038773       -1    115.019   86.8      16.459   L 
 H-H1-0.129478        -1    115.152   86.359    17.447   L 
 C-CT--0.108273       -1    113.664   86.475    15.836   L 
 H-HC-0.045214        -1    113.434   87.039    14.932   L 
 H-HC-0.045214        -1    113.639   85.426    15.54    L 
 C-CT-0.033341        -1    112.553   86.64     16.805   L 
 H-HC-0.010208        -1    112.754   86.257    17.806   L 
 H-HC-0.010208        -1    112.47    87.723    16.892   L 
 C-CT--0.047841       -1    111.229   86.191    16.192   L 
 H-HC-0.070715        -1    111.231   86.235    15.103   L 
 H-HC-0.070715        -1    111.072   85.159    16.508   L 
 C-CT--0.069974       -1    110.021   87.035    16.614   L 
 H-HP-0.119522        -1    109.908   87.025    17.698   L 
 H-HP-0.119522        -1    110.307   88.049    16.335   L 
 N-N3--0.250358       -1    108.732   86.706    16.037   L 
 H-H-0.294561         -1    108.716   86.687    15.027   L 
 H-H-0.294561         -1    108.32    85.821    16.295   L 
 H-H-0.294561         -1    108.102   87.446    16.313   L 
 C-C-0.725129         -1    116.19    86.346    15.594   L 
 O-O--0.563157        -1    116.788   85.292    15.81    L 
 N-N--0.450087        -1    116.645   87.092    14.62    L 
 H-H-0.440048         -1    116.137   87.953    14.477   L 
 C-CT--0.051858       -1    117.811   86.793    13.828   L 
 H-H1--0.026204       -1    117.747   85.728    13.606   L 
 C-CT-0.395217        -1    117.87    87.697    12.552   L 
 H-HC--0.115672       -1    117.688   88.747    12.783   L 
 C-CT--0.090132       -1    119.147   87.596    11.697   L 
 H-HC--0.008985       -1    118.758   87.689    10.683   L 
 H-HC--0.008985       -1    119.866   88.397    11.862   L 
 H-HC--0.008985       -1    119.624   86.617    11.742   L 
 C-CT--0.090132       -1    116.667   87.308    11.625   L 
 H-HC--0.008985       -1    115.73    87.251    12.18    L 
 H-HC--0.008985       -1    116.459   87.973    10.787   L 
 H-HC--0.008985       -1    116.792   86.336    11.147   L 
 C-C-0.447359         -1    119.139   86.985    14.597   L 
 O-O--0.404629        -1    120.052   86.207    14.426   L 
 N-N--0.451047        -1    119.195   87.991    15.528   L 
 H-H-0.328831         -1    118.548   88.764    15.462   L 
 C-CT--0.101874       -1    120.33    88.199    16.435   L 
 H-H1-0.174193        -1    121.281   88.14     15.906   L 
 C-CT-0.062238        -1    120.325   89.624    17.078   L 
 H-HC-0.061662        -1    119.381   89.757    17.606   L 
 C-CT--0.129989       -1    121.432   89.727    18.157   L 
 H-HC-0.030227        -1    122.332   89.432    17.618   L 
 H-HC-0.030227        -1    121.491   90.762    18.495   L 
 H-HC-0.030227        -1    121.243   89.105    19.032   L 
 C-CT-0.022230        -1    120.424   90.892    16.161   L 
 H-HC-0.011551        -1    119.462   91.402    16.207   L 
 H-HC-0.011551        -1    121.145   91.585    16.594   L 
 C-CT--0.101251       -1    120.881   90.752    14.706   L 
 H-HC-0.023792        -1    121.145   91.681    14.201   L 
 H-HC-0.023792        -1    121.805   90.175    14.741   L 
 H-HC-0.023792        -1    120.089   90.201    14.199   L 
 C-C-0.569383         -1    120.381   87.08     17.454   L 
 O-O--0.619535        -1    121.44    86.578    17.769   L 
 N-N--0.427579        -1    119.225   86.629    17.937   L 
 H-H-0.241716         -1    118.406   87.164    17.685   L 
 C-CT--0.020082       -1    119.072   85.553    18.935   L 
 H-H1-0.106629        -1    119.784   85.838    19.71    L 
 C-CT--0.098364       -1    117.524   85.448    19.419   L 
 H-HC-0.065424        -1    117.148   86.406    19.778   L 
 H-HC-0.065424        -1    116.969   85.009    18.59    L 
 C-C*--0.099797       -1    117.229   84.589    20.582   L 
 C-CW--0.174053       -1    117.647   84.849    21.868   L 
 H-H4-0.170633        -1    118.296   85.669    22.138   L 
 N-NA--0.298433       -1    117.127   83.904    22.71    L 
 H-H-0.322375         -1    117.376   83.808    23.684   L 
 C-CN-0.141523        -1    116.256   83.027    22.057   L 
 C-CA--0.210701       -1    115.568   81.873    22.522   L 
 H-HA-0.125512        -1    115.568   81.542    23.55    L 
 C-CA--0.133022       -1    114.853   81.248    21.501   L 
 H-HA-0.119467        -1    114.404   80.317    21.815   L 
 C-CA--0.164054       -1    114.827   81.636    20.158   L 
 H-HA-0.119250        -1    114.249   81.067    19.445   L 
 C-CA--0.153992       -1    115.496   82.78     19.763   L 
 H-HA-0.123084        -1    115.504   83.062    18.72    L 
 C-CB-0.089641        -1    116.302   83.526    20.723   L 
 C-C-0.584129         -1    119.616   84.227    18.425   L 
 O-O--0.494730        -1    120.501   83.561    19.089   L 
 N-N--0.423392        -1    119.365   83.807    17.232   L 
 H-H-0.306811         -1    118.724   84.407    16.734   L 
 C-CT-0.031633        -1    119.88    82.579    16.604   L 
 H-H1-0.065100        -1    119.866   81.83     17.396   L 
 C-CT-0.074772        -1    119.008   82.104    15.459   L 
 H-HC--0.003535       -1    119.234   81.086    15.143   L 
 H-HC--0.003535       -1    117.962   82.164    15.762   L 
 C-CT--0.033909       -1    119.096   83.003    14.256   L 
 H-HC--0.004135       -1    118.746   83.939    14.69    L 
 H-HC--0.004135       -1    120.095   83.151    13.845   L 
 C-C-0.765188         -1    118.058   82.619    13.278   L 
 O-O2--0.824035       -1    118.386   82.372    12.117   L 
 O-O2--0.824035       -1    116.842   82.759    13.588   L 
 C-C-0.469735         -1    121.336   82.56     16.156   L 
 O-O--0.592528        -1    121.831   81.659    15.448   L 
 N-N--0.387353        -1    122.05    83.648    16.463   L 
 H-H-0.300605         -1    121.594   84.372    17.      L 
 C-CT-0.037470        -1    123.485   83.796    16.355   L 
 H-H1-0.152255        -1    123.866   82.869    15.926   L 
 C-CT--0.032112       -1    123.857   84.916    15.372   L 
 H-HC-0.030995        -1    123.536   85.922    15.641   L 
 H-HC-0.030995        -1    124.943   84.942    15.466   L 
 C-CT--0.020264       -1    123.377   84.677    13.93    L 
 H-HC-0.030791        -1    123.829   83.785    13.496   L 
 H-HC-0.030791        -1    122.294   84.557    13.935   L 
 C-C-0.667812         -1    123.616   85.957    13.137   L 
 O-O--0.628483        -1    124.678   86.306    12.675   L 
 N-N--0.883393        -1    122.589   86.613    12.691   L 
 H-H-0.408312         -1    122.797   87.292    11.973   L 
 H-H-0.408312         -1    121.615   86.4      12.855   L 
 C-C-0.418577         -1    124.189   84.02     17.71    L 
 O-O--0.565310        -1    125.307   83.681    17.862   L 
 N-N--0.245382        -1    123.501   84.66     18.688   L 
 H-H-0.255339         -1    122.5     84.702    18.556   L 
 C-CT--0.271249       -1    124.142   85.105    19.97    L 
 H-H1-0.163757        -1    125.13    85.437    19.65    L 
 C-CT-0.237868        -1    123.423   86.357    20.605   L 
 H-H1-0.044688        -1    123.029   86.947    19.777   L 
 C-CT--0.176489       -1    122.174   86.031    21.404   L 
 H-HC-0.060019        -1    121.503   86.87     21.587   L 
 H-HC-0.060019        -1    121.665   85.261    20.825   L 
 H-HC-0.060019        -1    122.519   85.602    22.344   L 
 O-OH--0.601931       -1    124.276   87.087    21.451   L 
 H-HO-0.405484        -1    123.9     87.969    21.471   L 
 C-C-0.559878         -1    124.377   83.985    20.947   L 
 O-O--0.552020        -1    123.855   82.836    20.74    L 
 N-N--0.300879        -1    125.134   84.264    22.023   L 
 H-H-0.233693         -1    125.555   85.182    21.984   L 
 C-CT--0.131381       -1    125.521   83.384    23.123   L 
 H-H1-0.053266        -1    125.404   82.333    22.856   L 
 C-CT-0.036707        -1    126.952   83.588    23.637   L 
 H-HC-0.028012        -1    127.218   82.89     24.431   L 
 H-HC-0.028012        -1    127.626   83.316    22.825   L 
 C-CT-0.012454        -1    127.27    85.006    24.04    L 
 H-HC-0.002964        -1    126.932   85.74     23.309   L 
 H-HC-0.002964        -1    126.791   85.384    24.943   L 
 C-CT-0.126329        -1    128.837   85.225    24.236   L 
 H-H1-0.068148        -1    129.08    84.43     24.941   L 
 H-H1-0.068148        -1    129.399   84.949    23.344   L 
 N-N2--0.464890       -1    129.223   86.615    24.651   L 
 H-H-0.326274         -1    128.488   87.244    24.939   L 
 C-CA-0.565543        -1    130.495   87.072    24.668   L 
 N-N2--0.685774       -1    131.496   86.285    24.425   L 
 H-H-0.391052         -1    131.377   85.3      24.235   L 
 H-H-0.391052         -1    132.448   86.614    24.359   L 
 N-N2--0.685774       -1    130.812   88.284    25.115   L 
 H-H-0.391052         -1    130.027   88.849    25.406   L 
 H-H-0.391052         -1    131.795   88.495    25.213   L 
 C-C-0.730308         -1    124.487   83.514    24.239   L 
 O-O--0.578332        -1    123.876   84.593    24.365   L 
 N-N--0.374282        -1    124.36    82.505    25.068   L 
 H-H-0.253981         -1    124.971   81.718    24.898   L 
 C-CT--0.128844       -1    123.607   82.519    26.295   L 
 H-HC-0.088859        -1    123.689   81.654    26.954   L 
 H-HC-0.088859        -1    123.96    83.347    26.908   L 
 C-C-0.580584         -1    122.073   82.635    25.938   L 
 O-O--0.509157        -1    121.383   83.418    26.594   L 
 N-N--0.396165        -1    121.577   82.041    24.822   L 
 H-H-0.295187         -1    122.281   81.667    24.201   L 
 C-CT--0.073501       -1    120.194   82.172    24.279   L 
 H-H1-0.140510        -1    120.178   83.157    23.813   L 
 C-CT--0.221371       -1    120.024   81.091    23.141   L 
 H-H1-0.146537        -1    119.931   80.061    23.487   L 
 H-H1-0.146537        -1    119.133   81.449    22.625   L 
 S-SH--0.285182       -1    121.45    81.121    21.936   L 
 H-HS-0.189274        -1    120.663   80.678    20.951   L 
 C-C-0.643035         -1    119.042   82.122    25.338   L 
 O-O--0.584861        -1    118.075   82.876    25.148   L 
 N-N--0.245382        -1    119.124   81.246    26.376   L 
 H-H-0.255339         -1    119.924   80.63     26.365   L 
 C-CT--0.271249       -1    118.078   81.096    27.422   L 
 H-H1-0.163757        -1    117.084   81.035    26.98    L 
 C-CT-0.237868        -1    118.262   79.905    28.33    L 
 H-H1-0.044688        -1    119.082   80.002    29.042   L 
 C-CT--0.176489       -1    117.021   79.533    29.166   L 
 H-HC-0.060019        -1    116.231   79.445    28.42    L 
 H-HC-0.060019        -1    117.172   78.527    29.558   L 
 H-HC-0.060019        -1    116.818   80.314    29.898   L 
 O-OH--0.601931       -1    118.515   78.702    27.623   L 
 H-HO-0.405484        -1    119.461   78.751    27.466   L 
 C-C-0.559878         -1    118.284   82.349    28.326   L 
 O-O--0.552020        -1    117.28    82.901    28.701   L 
 N-N--0.355153        -1    119.551   82.823    28.65    L 
 H-H-0.262417         -1    120.402   82.384    28.331   L 
 C-CT--0.101497       -1    119.665   83.97     29.535   L 
 H-H1-0.136951        -1    119.185   83.751    30.488   L 
 C-CT--0.144399       -1    121.115   84.265    29.882   L 
 H-HC-0.052533        -1    121.664   84.451    28.958   L 
 H-HC-0.052533        -1    121.139   85.248    30.352   L 
 C-CT-0.191982        -1    121.934   83.258    30.705   L 
 H-HC-0.000825        -1    121.809   82.212    30.426   L 
 C-CT--0.123036       -1    123.345   83.529    30.535   L 
 H-HC-0.022376        -1    123.91    82.717    30.995   L 
 H-HC-0.022376        -1    123.524   83.475    29.462   L 
 H-HC-0.022376        -1    123.57    84.536    30.886   L 
 C-CT--0.123036       -1    121.622   83.125    32.229   L 
 H-HC-0.022376        -1    120.559   83.329    32.352   L 
 H-HC-0.022376        -1    121.846   82.134    32.627   L 
 H-HC-0.022376        -1    122.204   83.907    32.716   L 
 C-C-0.573471         -1    119.164   85.305    28.838   L 
 O-O--0.557847        -1    118.696   86.259    29.466   L 
 N-N--0.404773        -1    119.295   85.395    27.513   L 
 H-H-0.294276         -1    119.794   84.659    27.034   L 
 C-CT--0.027733       -1    118.886   86.506    26.632   L 
 H-H1-0.120802        -1    119.14    87.422    27.166   L 
 C-CT--0.229951       -1    119.502   86.44     25.202   L 
 H-HC-0.077428        -1    119.267   85.403    24.962   L 
 H-HC-0.077428        -1    119.032   87.114    24.485   L 
 H-HC-0.077428        -1    120.571   86.654    25.212   L 
 C-C-0.570224         -1    117.327   86.451    26.45    L 
 O-O--0.555129        -1    116.691   87.421    26.565   L 
 N-N--0.404773        -1    116.689   85.26     26.233   L 
 H-H-0.294276         -1    117.116   84.346    26.187   L 
 C-CT--0.027733       -1    115.166   85.149    26.185   L 
 H-H1-0.120802        -1    114.871   85.898    25.45    L 
 C-CT--0.229951       -1    114.774   83.771    25.581   L 
 H-HC-0.077428        -1    115.447   83.432    24.795   L 
 H-HC-0.077428        -1    114.75    83.141    26.47    L 
 H-HC-0.077428        -1    113.737   83.815    25.248   L 
 C-C-0.570224         -1    114.398   85.504    27.424   L 
 O-O--0.555129        -1    113.396   86.22     27.382   L 
 N-N--0.355153        -1    114.883   85.18     28.588   L 
 H-H-0.262417         -1    115.714   84.609    28.645   L 
 C-CT--0.101497       -1    114.184   85.439    29.77    L 
 H-H1-0.136951        -1    113.13    85.283    29.542   L 
 C-CT--0.144399       -1    114.663   84.472    30.841   L 
 H-HC-0.052533        -1    115.753   84.474    30.861   L 
 H-HC-0.052533        -1    114.323   84.779    31.83    L 
 C-CT-0.191982        -1    114.17    83.       30.559   L 
 H-HC-0.000825        -1    114.744   82.707    29.679   L 
 C-CT--0.123036       -1    114.469   82.106    31.755   L 
 H-HC-0.022376        -1    115.412   82.291    32.268   L 
 H-HC-0.022376        -1    113.759   82.278    32.564   L 
 H-HC-0.022376        -1    114.498   81.044    31.513   L 
 C-CT--0.123036       -1    112.65    82.884    30.257   L 
 H-HC-0.022376        -1    111.988   83.397    30.954   L 
 H-HC-0.022376        -1    112.426   83.105    29.213   L 
 H-HC-0.022376        -1    112.386   81.839    30.421   L 
 C-C-0.573471         -1    114.332   86.947    30.046   L 
 O-O--0.557847        -1    113.413   87.666    30.368   L 
 N-N--0.374282        -1    115.485   87.572    29.693   L 
 H-H-0.253981         -1    116.27    86.954    29.544   L 
 C-CT--0.128844       -1    115.846   89.052    29.607   L 
 H-HC-0.088859        -1    115.655   89.581    30.54    L 
 H-HC-0.088859        -1    116.881   89.158    29.282   L 
 C-C-0.580584         -1    115.006   89.806    28.629   L 
 O-O--0.509157        -1    114.502   90.842    28.976   L 
 N-N--0.404773        -1    114.703   89.199    27.415   L 
 H-H-0.294276         -1    115.121   88.31     27.179   L 
 C-CT--0.027733       -1    113.742   89.729    26.505   L 
 H-H1-0.120802        -1    113.989   90.742    26.187   L 
 C-CT--0.229951       -1    113.759   88.846    25.269   L 
 H-HC-0.077428        -1    114.68    88.941    24.693   L 
 H-HC-0.077428        -1    113.58    87.786    25.452   L 
 H-HC-0.077428        -1    112.993   89.197    24.578   L 
 C-C-0.570224         -1    112.287   89.757    27.101   L 
 O-O--0.555129        -1    111.649   90.812    27.306   L 
 N-N--0.541430        -1    111.662   88.617    27.499   L 
 H-H-0.345415         -1    112.133   87.73     27.389   L 
 C-CT-0.118140        -1    110.361   88.59     28.116   L 
 H-H1-0.142177        -1    109.609   88.85     27.371   L 
 C-CT-0.146998        -1    110.04    87.192    28.548   L 
 H-H1-0.040081        -1    110.144   86.531    27.687   L 
 H-H1-0.040081        -1    110.696   86.779    29.314   L 
 O-OH--0.640312       -1    108.652   87.121    28.821   L 
 H-HO-0.446255        -1    108.384   86.383    29.373   L 
 C-C-0.483424         -1    110.267   89.561    29.339   L 
 O-O--0.580829        -1    109.314   90.326    29.281   L 
 N-N--0.435875        -1    111.223   89.438    30.265   L 
 H-H-0.251302         -1    111.847   88.658    30.115   L 
 C-CT--0.038773       -1    111.362   90.445    31.354   L 
 H-H1-0.129478        -1    110.524   90.233    32.017   L 
 C-CT--0.108273       -1    112.744   90.221    32.009   L 
 H-HC-0.045214        -1    112.508   89.301    32.544   L 
 H-HC-0.045214        -1    113.479   89.93     31.258   L 
 C-CT-0.033341        -1    113.304   91.341    32.917   L 
 H-HC-0.010208        -1    113.344   92.29     32.382   L 
 H-HC-0.010208        -1    112.642   91.598    33.745   L 
 C-CT--0.047841       -1    114.613   90.962    33.661   L 
 H-HC-0.070715        -1    114.489   90.12     34.341   L 
 H-HC-0.070715        -1    115.425   90.73     32.972   L 
 C-CT--0.069974       -1    115.114   92.127    34.605   L 
 H-HP-0.119522        -1    114.287   92.314    35.29    L 
 H-HP-0.119522        -1    116.008   91.766    35.113   L 
 N-N3--0.250358       -1    115.46    93.395    33.98    L 
 H-H-0.294561         -1    115.994   93.293    33.129   L 
 H-H-0.294561         -1    114.692   93.907    33.57    L 
 H-H-0.294561         -1    115.902   94.033    34.626   L 
 C-C-0.725129         -1    111.167   91.892    30.951   L 
 O-O--0.563157        -1    110.408   92.538    31.663   L 
 N-N--0.355153        -1    111.684   92.281    29.751   L 
 H-H-0.262417         -1    112.12    91.592    29.154   L 
 C-CT--0.101497       -1    111.743   93.643    29.296   L 
 H-H1-0.136951        -1    111.861   94.387    30.084   L 
 C-CT--0.144399       -1    112.972   93.882    28.358   L 
 H-HC-0.052533        -1    113.797   94.06     29.047   L 
 H-HC-0.052533        -1    113.364   93.01     27.834   L 
 C-CT-0.191982        -1    113.016   95.057    27.311   L 
 H-HC-0.000825        -1    112.288   94.958    26.505   L 
 C-CT--0.123036       -1    112.727   96.326    28.031   L 
 H-HC-0.022376        -1    113.544   96.503    28.73    L 
 H-HC-0.022376        -1    112.605   97.14     27.316   L 
 H-HC-0.022376        -1    111.779   96.358    28.569   L 
 C-CT--0.123036       -1    114.261   95.14     26.49    L 
 H-HC-0.022376        -1    114.235   96.037    25.872   L 
 H-HC-0.022376        -1    115.132   95.061    27.14    L 
 H-HC-0.022376        -1    114.227   94.309    25.785   L 
 C-C-0.573471         -1    110.413   93.919    28.54    L 
 O-O--0.557847        -1    109.656   94.848    28.781   L 
 N-N--0.355153        -1    110.076   93.088    27.541   L 
 H-H-0.262417         -1    110.644   92.262    27.419   L 
 C-CT--0.101497       -1    108.883   93.177    26.729   L 
 H-H1-0.136951        -1    108.884   94.021    26.04    L 
 C-CT--0.144399       -1    108.873   91.905    25.902   L 
 H-HC-0.052533        -1    109.147   90.95     26.351   L 
 H-HC-0.052533        -1    107.855   91.712    25.561   L 
 C-CT-0.191982        -1    109.686   91.845    24.564   L 
 H-HC-0.000825        -1    110.679   92.207    24.827   L 
 C-CT--0.123036       -1    109.853   90.395    24.063   L 
 H-HC-0.022376        -1    110.271   89.84     24.903   L 
 H-HC-0.022376        -1    108.881   90.025    23.736   L 
 H-HC-0.022376        -1    110.666   90.352    23.338   L 
 C-CT--0.123036       -1    109.191   92.677    23.427   L 
 H-HC-0.022376        -1    108.439   92.059    22.936   L 
 H-HC-0.022376        -1    108.748   93.559    23.891   L 
 H-HC-0.022376        -1    110.029   92.923    22.775   L 
 C-C-0.573471         -1    107.596   93.22     27.539   L 
 O-O--0.557847        -1    106.756   94.018    27.255   L 
 N-N--0.435875        -1    107.439   92.372    28.555   L 
 H-H-0.251302         -1    108.131   91.645    28.669   L 
 C-CT--0.038773       -1    106.314   92.371    29.531   L 
 H-H1-0.129478        -1    105.392   92.299    28.953   L 
 C-CT--0.108273       -1    106.363   91.177    30.424   L 
 H-HC-0.045214        -1    107.371   91.122    30.834   L 
 H-HC-0.045214        -1    105.68    91.342    31.258   L 
 C-CT-0.033341        -1    105.938   89.872    29.834   L 
 H-HC-0.010208        -1    104.907   89.918    29.483   L 
 H-HC-0.010208        -1    106.578   89.781    28.956   L 
 C-CT--0.047841       -1    106.137   88.787    30.891   L 
 H-HC-0.070715        -1    107.163   88.667    31.239   L 
 H-HC-0.070715        -1    105.566   88.966    31.802   L 
 C-CT--0.069974       -1    105.688   87.513    30.139   L 
 H-HP-0.119522        -1    104.635   87.648    29.892   L 
 H-HP-0.119522        -1    106.307   87.485    29.242   L 
 N-N3--0.250358       -1    105.902   86.388    31.114   L 
 H-H-0.294561         -1    105.478   85.538    30.772   L 
 H-H-0.294561         -1    106.881   86.149    31.186   L 
 H-H-0.294561         -1    105.546   86.559    32.044   L 
 C-C-0.725129         -1    106.291   93.628    30.348   L 
 O-O--0.563157        -1    105.234   94.082    30.811   L 
 N-N--0.245382        -1    107.443   94.327    30.562   L 
 H-H-0.255339         -1    108.272   94.06     30.05    L 
 C-CT--0.271249       -1    107.498   95.736    31.007   L 
 H-H1-0.163757        -1    106.769   95.818    31.813   L 
 C-CT-0.237868        -1    108.849   96.052    31.683   L 
 H-H1-0.044688        -1    109.692   96.012    30.994   L 
 C-CT--0.176489       -1    108.787   97.375    32.317   L 
 H-HC-0.060019        -1    108.637   98.157    31.573   L 
 H-HC-0.060019        -1    108.085   97.547    33.133   L 
 H-HC-0.060019        -1    109.682   97.564    32.909   L 
 O-OH--0.601931       -1    108.99    95.091    32.75    L 
 H-HO-0.405484        -1    108.945   94.236    32.315   L 
 C-C-0.559878         -1    107.087   96.722    29.995   L 
 O-O--0.552020        -1    106.233   97.514    30.303   L 
 N-N--0.355153        -1    107.601   96.741    28.764   L 
 H-H-0.262417         -1    108.301   96.03     28.603   L 
 C-CT--0.101497       -1    107.063   97.666    27.707   L 
 H-H1-0.136951        -1    107.34    98.664    28.048   L 
 C-CT--0.144399       -1    107.758   97.476    26.345   L 
 H-HC-0.052533        -1    107.493   96.47     26.019   L 
 H-HC-0.052533        -1    107.358   98.166    25.602   L 
 C-CT-0.191982        -1    109.303   97.505    26.312   L 
 H-HC-0.000825        -1    109.741   96.748    26.963   L 
 C-CT--0.123036       -1    109.839   97.223    24.921   L 
 H-HC-0.022376        -1    109.575   96.179    24.754   L 
 H-HC-0.022376        -1    109.393   97.838    24.139   L 
 H-HC-0.022376        -1    110.91    97.299    24.731   L 
 C-CT--0.123036       -1    109.898   98.916    26.634   L 
 H-HC-0.022376        -1    109.204   99.7      26.329   L 
 H-HC-0.022376        -1    109.94    99.037    27.717   L 
 H-HC-0.022376        -1    110.883   99.084    26.199   L 
 C-C-0.573471         -1    105.551   97.561    27.495   L 
 O-O--0.557847        -1    104.787   98.538    27.41    L 
 N-N--0.404773        -1    104.975   96.363    27.502   L 
 H-H-0.294276         -1    105.558   95.54     27.551   L 
 C-CT--0.027733       -1    103.56    96.059    27.447   L 
 H-H1-0.120802        -1    103.202   96.472    26.504   L 
 C-CT--0.229951       -1    103.418   94.573    27.497   L 
 H-HC-0.077428        -1    103.942   94.075    26.682   L 
 H-HC-0.077428        -1    103.901   94.167    28.386   L 
 H-HC-0.077428        -1    102.359   94.325    27.564   L 
 C-C-0.570224         -1    102.67    96.655    28.564   L 
 O-O--0.555129        -1    101.495   96.405    28.477   L 
 N-N--0.435875        -1    103.219   97.422    29.505   L 
 H-H-0.251302         -1    104.219   97.556    29.447   L 
 C-CT--0.038773       -1    102.552   98.031    30.571   L 
 H-H1-0.129478        -1    101.483   97.845    30.463   L 
 C-CT--0.108273       -1    102.831   97.188    31.878   L 
 H-HC-0.045214        -1    103.902   96.987    31.894   L 
 H-HC-0.045214        -1    102.588   97.795    32.75    L 
 C-CT-0.033341        -1    102.201   95.833    31.967   L 
 H-HC-0.010208        -1    101.184   96.009    31.616   L 
 H-HC-0.010208        -1    102.587   95.176    31.189   L 
 C-CT--0.047841       -1    102.244   95.138    33.39    L 
 H-HC-0.070715        -1    103.275   95.142    33.745   L 
 H-HC-0.070715        -1    101.694   95.681    34.159   L 
 C-CT--0.069974       -1    101.714   93.687    33.232   L 
 H-HP-0.119522        -1    102.244   93.214    32.405   L 
 H-HP-0.119522        -1    102.011   93.116    34.111   L 
 N-N3--0.250358       -1    100.264   93.593    32.981   L 
 H-H-0.294561         -1    100.032   94.128    32.157   L 
 H-H-0.294561         -1    99.967    92.648    32.784   L 
 H-H-0.294561         -1    99.694    93.867    33.769   L 
 C-C-0.725129         -1    102.788   99.505    30.732   L 
 O-O--0.563157        -1    102.339   100.152   31.751   L 
 N-N--0.450087        -1    103.457   100.136   29.772   L 
 H-H-0.440048         -1    103.82    99.652    28.963   L 
 C-CT--0.051858       -1    103.767   101.578   29.852   L 
 H-H1--0.026204       -1    104.06    101.917   30.845   L 
 C-CT-0.395217        -1    104.894   102.047   28.878   L 
 H-HC--0.115672       -1    105.162   103.07    29.144   L 
 C-CT--0.090132       -1    106.152   101.229   29.108   L 
 H-HC--0.008985       -1    106.384   101.462   30.148   L 
 H-HC--0.008985       -1    106.112   100.151   28.957   L 
 H-HC--0.008985       -1    106.964   101.618   28.494   L 
 C-CT--0.090132       -1    104.519   102.067   27.387   L 
 H-HC--0.008985       -1    103.856   102.885   27.104   L 
 H-HC--0.008985       -1    105.391   102.134   26.737   L 
 H-HC--0.008985       -1    103.881   101.241   27.073   L 
 C-C-0.447359         -1    102.426   102.364   29.698   L 
 O-O--0.404629        -1    101.407   101.766   29.167   L 
 N-N--0.435875        -1    102.291   103.609   30.165   L 
 H-H-0.251302         -1    103.078   104.026   30.641   L 
 C-CT--0.038773       -1    100.976   104.323   30.079   L 
 H-H1-0.129478        -1    100.23    103.544   30.238   L 
 C-CT--0.108273       -1    100.706   105.362   31.204   L 
 H-HC-0.045214        -1    101.466   106.142   31.258   L 
 H-HC-0.045214        -1    99.781    105.88    30.95    L 
 C-CT-0.033341        -1    100.609   104.72    32.624   L 
 H-HC-0.010208        -1    99.96     103.846   32.556   L 
 H-HC-0.010208        -1    101.62    104.396   32.871   L 
 C-CT--0.047841       -1    100.002   105.799   33.575   L 
 H-HC-0.070715        -1    100.632   106.678   33.711   L 
 H-HC-0.070715        -1    99.084    106.051   33.045   L 
 C-CT--0.069974       -1    99.736    105.256   34.966   L 
 H-HP-0.119522        -1    99.026    106.002   35.323   L 
 H-HP-0.119522        -1    99.53     104.188   35.038   L 
 N-N3--0.250358       -1    100.852   105.287   35.923   L 
 H-H-0.294561         -1    101.31    106.187   35.955   L 
 H-H-0.294561         -1    100.602   104.98    36.852   L 
 H-H-0.294561         -1    101.596   104.703   35.569   L 
 C-C-0.725129         -1    100.84    105.021   28.753   L 
 O-O--0.563157        -1    99.738    105.511   28.532   L 
 N-N--0.430106        -1    101.915   105.153   27.918   L 
 H-H-0.254543         -1    102.858   104.944   28.213   L 
 C-CT-0.044609        -1    101.747   105.863   26.548   L 
 H-H1-0.059601        -1    100.691   106.123   26.475   L 
 C-CT--0.093650       -1    102.618   107.066   26.482   L 
 H-HC-0.043321        -1    103.673   106.805   26.397   L 
 H-HC-0.043321        -1    102.516   107.551   25.512   L 
 C-C-0.583519         -1    102.388   108.073   27.595   L 
 O-O--0.526813        -1    102.777   107.927   28.793   L 
 N-N--0.781735        -1    101.738   109.15    27.331   L 
 H-H-0.355079         -1    101.799   109.929   27.972   L 
 H-H-0.355079         -1    101.376   109.379   26.417   L 
 C-C-0.617141         -1    101.966   104.908   25.337   L 
 O-O--0.523909        -1    102.438   105.328   24.336   L 
 N-N--0.558201        -1    101.63    103.614   25.446   L 
 H-H-0.319676         -1    101.363   103.306   26.37    L 
 C-CT-0.007225        -1    101.586   102.597   24.409   L 
 H-H1-0.082375        -1    101.391   103.055   23.44    L 
 C-CT--0.047555       -1    102.937   101.762   24.346   L 
 H-HC--0.014836       -1    103.703   102.531   24.242   L 
 H-HC--0.014836       -1    103.175   101.079   25.162   L 
 C-C-0.745168         -1    102.8     100.914   23.051   L 
 O-O2--0.730385       -1    103.116   101.422   21.976   L 
 O-O2--0.730385       -1    102.358   99.77     23.103   L 
 C-C-0.443199         -1    100.385   101.709   24.683   L 
 O-O--0.501445        -1    99.915    101.588   25.768   L 
 N-N--0.451047        -1    99.717    101.366   23.536   L 
 H-H-0.328831         -1    100.1     101.823   22.721   L 
 C-CT--0.101874       -1    98.578    100.451   23.441   L 
 H-H1-0.174193        -1    98.619    99.716    24.245   L 
 C-CT-0.062238        -1    97.208    101.258   23.731   L 
 H-HC-0.061662        -1    97.299    101.934   24.581   L 
 C-CT--0.129989       -1    96.828    102.142   22.497   L 
 H-HC-0.030227        -1    96.121    101.659   21.822   L 
 H-HC-0.030227        -1    96.263    102.974   22.916   L 
 H-HC-0.030227        -1    97.73     102.56    22.05    L 
 C-CT-0.022230        -1    96.212    100.217   24.06    L 
 H-HC-0.011551        -1    96.059    99.66     23.135   L 
 H-HC-0.011551        -1    96.679    99.699    24.897   L 
 C-CT--0.101251       -1    94.851    100.708   24.442   L 
 H-HC-0.023792        -1    94.561    101.427   23.675   L 
 H-HC-0.023792        -1    94.156    99.879    24.57    L 
 H-HC-0.023792        -1    94.915    101.321   25.341   L 
 C-C-0.569383         -1    98.464    99.661    22.115   L 
 O-O--0.619535        -1    97.921    98.544    22.2     L 
 N-N--0.430106        -1    99.087    100.028   21.013   L 
 H-H-0.254543         -1    99.61     100.889   20.944   L 
 C-CT-0.044609        -1    99.056    99.262    19.746   L 
 H-H1-0.059601        -1    98.239    98.54     19.755   L 
 C-CT--0.093650       -1    98.881    100.228   18.557   L 
 H-HC-0.043321        -1    99.864    100.663   18.382   L 
 H-HC-0.043321        -1    98.678    99.585    17.701   L 
 C-C-0.583519         -1    97.736    101.167   18.679   L 
 O-O--0.526813        -1    96.56     100.741   18.69    L 
 N-N--0.781735        -1    97.834    102.453   18.738   L 
 H-H-0.355079         -1    97.014    103.034   18.631   L 
 H-H-0.355079         -1    98.739    102.879   18.882   L 
 C-C-0.617141         -1    100.286   98.385    19.547   L 
 O-O--0.523909        -1    100.28    97.744    18.483   L 
 N-N--0.404773        -1    101.307   98.463    20.447   L 
 H-H-0.294276         -1    101.295   99.161    21.176   L 
 C-CT--0.027733       -1    102.41    97.527    20.557   L 
 H-H1-0.120802        -1    102.412   96.718    19.827   L 
 C-CT--0.229951       -1    103.776   98.099    20.448   L 
 H-HC-0.077428        -1    104.477   97.265    20.417   L 
 H-HC-0.077428        -1    103.881   98.695    19.542   L 
 H-HC-0.077428        -1    103.924   98.614    21.397   L 
 C-C-0.570224         -1    102.332   96.671    21.872   L 
 O-O--0.555129        -1    102.892   95.592    21.914   L 
 N-N--0.404773        -1    101.669   97.168    22.924   L 
 H-H-0.294276         -1    101.453   98.154    22.932   L 
 C-CT--0.027733       -1    101.437   96.562    24.287   L 
 H-H1-0.120802        -1    102.302   96.841    24.888   L 
 C-CT--0.229951       -1    100.167   97.237    24.936   L 
 H-HC-0.077428        -1    99.383    97.393    24.195   L 
 H-HC-0.077428        -1    99.847    96.617    25.773   L 
 H-HC-0.077428        -1    100.343   98.265    25.254   L 
 C-C-0.570224         -1    101.321   95.03     24.203   L 
 O-O--0.555129        -1    102.298   94.332    24.316   L 
 N-N--0.374282        -1    100.041   94.633    24.023   L 
 H-H-0.253981         -1    99.285    95.294    23.913   L 
 C-CT--0.128844       -1    99.622    93.23     23.854   L 
 H-HC-0.088859        -1    99.936    92.653    24.724   L 
 H-HC-0.088859        -1    98.541    93.267    23.724   L 
 C-C-0.580584         -1    100.309   92.467    22.683   L 
 O-O--0.509157        -1    100.624   91.232    22.747   L 
 N-N--0.423392        -1    100.821   93.144    21.667   L 
 H-H-0.306811         -1    100.622   94.13     21.765   L 
 C-CT-0.031633        -1    101.631   92.505    20.626   L 
 H-H1-0.065100        -1    101.063   91.588    20.466   L 
 C-CT-0.074772        -1    101.676   93.492    19.426   L 
 H-HC--0.003535       -1    100.711   93.331    18.945   L 
 H-HC--0.003535       -1    101.718   94.535    19.737   L 
 C-CT--0.033909       -1    102.829   93.066    18.488   L 
 H-HC--0.004135       -1    103.834   93.233    18.876   L 
 H-HC--0.004135       -1    102.751   91.995    18.303   L 
 C-C-0.765188         -1    102.687   93.846    17.221   L 
 O-O2--0.824035       -1    102.312   93.298    16.137   L 
 O-O2--0.824035       -1    103.037   95.063    17.233   L 
 C-C-0.469735         -1    102.914   91.94     21.247   L 
 O-O--0.592528        -1    103.353   90.819    20.908   L 
 N-N--0.541430        -1    103.56    92.726    22.119   L 
 H-H-0.345415         -1    103.031   93.56     22.331   L 
 C-CT-0.118140        -1    104.836   92.492    22.722   L 
 H-H1-0.142177        -1    105.467   92.092    21.929   L 
 C-CT-0.146998        -1    105.386   93.816    23.351   L 
 H-H1-0.040081        -1    104.854   94.23     24.208   L 
 H-H1-0.040081        -1    106.382   93.609    23.742   L 
 O-OH--0.640312       -1    105.461   94.889    22.355   L 
 H-HO-0.446255        -1    104.564   95.183    22.181   L 
 C-C-0.483424         -1    104.672   91.514    23.914   L 
 O-O--0.580829        -1    105.604   90.914    24.366   L 
 N-N--0.423392        -1    103.414   91.193    24.36    L 
 H-H-0.306811         -1    102.658   91.556    23.796   L 
 C-CT-0.031633        -1    103.133   90.016    25.21    L 
 H-H1-0.065100        -1    103.918   90.163    25.952   L 
 C-CT-0.074772        -1    101.792   89.99     25.886   L 
 H-HC--0.003535       -1    100.928   89.751    25.266   L 
 H-HC--0.003535       -1    101.823   89.111    26.53    L 
 C-CT--0.033909       -1    101.66    91.309    26.61    L 
 H-HC--0.004135       -1    102.512   91.606    27.222   L 
 H-HC--0.004135       -1    101.42    92.121    25.924   L 
 C-C-0.765188         -1    100.562   91.32     27.673   L 
 O-O2--0.824035       -1    100.732   90.568    28.682   L 
 O-O2--0.824035       -1    99.561    92.097    27.522   L 
 C-C-0.469735         -1    103.315   88.79     24.336   L 
 O-O--0.592528        -1    103.891   87.806    24.723   L 
 N-N--0.423392        -1    102.789   88.807    23.127   L 
 H-H-0.306811         -1    102.277   89.575    22.717   L 
 C-CT-0.031633        -1    102.92    87.593    22.349   L 
 H-H1-0.065100        -1    102.572   86.698    22.865   L 
 C-CT-0.074772        -1    101.961   87.741    21.164   L 
 H-HC--0.003535       -1    102.075   88.635    20.551   L 
 H-HC--0.003535       -1    102.065   86.842    20.555   L 
 C-CT--0.033909       -1    100.458   87.797    21.537   L 
 H-HC--0.004135       -1    100.157   86.922    22.113   L 
 H-HC--0.004135       -1    100.235   88.745    22.028   L 
 C-C-0.765188         -1    99.643    87.682    20.23    L 
 O-O2--0.824035       -1    99.225    88.706    19.675   L 
 O-O2--0.824035       -1    99.183    86.546    19.906   L 
 C-C-0.469735         -1    104.33    87.294    21.748   L 
 O-O--0.592528        -1    104.786   86.126    21.599   L 
 N-N--0.355153        -1    105.103   88.395    21.548   L 
 H-H-0.262417         -1    104.646   89.291    21.462   L 
 C-CT--0.101497       -1    106.543   88.203    21.297   L 
 H-H1-0.136951        -1    106.75    87.396    20.596   L 
 C-CT--0.144399       -1    107.178   89.515    20.711   L 
 H-HC-0.052533        -1    106.721   89.591    19.724   L 
 H-HC-0.052533        -1    106.805   90.363    21.285   L 
 C-CT-0.191982        -1    108.712   89.521    20.604   L 
 H-HC-0.000825        -1    109.205   89.461    21.575   L 
 C-CT--0.123036       -1    109.099   88.375    19.675   L 
 H-HC-0.022376        -1    108.857   87.428    20.157   L 
 H-HC-0.022376        -1    108.548   88.381    18.735   L 
 H-HC-0.022376        -1    110.165   88.332    19.454   L 
 C-CT--0.123036       -1    109.179   90.815    19.939   L 
 H-HC-0.022376        -1    108.717   90.947    18.961   L 
 H-HC-0.022376        -1    108.74    91.67     20.453   L 
 H-HC-0.022376        -1    110.26    90.923    19.846   L 
 C-C-0.573471         -1    107.17    87.756    22.577   L 
 O-O--0.557847        -1    108.12    86.981    22.499   L 
 N-N--0.404773        -1    106.742   88.177    23.741   L 
 H-H-0.294276         -1    105.937   88.786    23.769   L 
 C-CT--0.027733       -1    107.245   87.597    25.007   L 
 H-H1-0.120802        -1    108.321   87.717    24.878   L 
 C-CT--0.229951       -1    106.818   88.481    26.137   L 
 H-HC-0.077428        -1    107.12    89.513    25.959   L 
 H-HC-0.077428        -1    105.745   88.302    26.201   L 
 H-HC-0.077428        -1    107.143   88.102    27.106   L 
 C-C-0.570224         -1    106.969   86.066    25.251   L 
 O-O--0.555129        -1    107.856   85.328    25.553   L 
 N-N--0.430106        -1    105.807   85.561    24.772   L 
 H-H-0.254543         -1    105.149   86.211    24.365   L 
 C-CT-0.044609        -1    105.548   84.092    24.937   L 
 H-H1-0.059601        -1    105.539   83.754    25.974   L 
 C-CT--0.093650       -1    104.103   83.892    24.603   L 
 H-HC-0.043321        -1    103.475   84.715    24.942   L 
 H-HC-0.043321        -1    103.897   84.001    23.538   L 
 C-C-0.583519         -1    103.419   82.699    25.261   L 
 O-O--0.526813        -1    103.141   81.669    24.632   L 
 N-N--0.781735        -1    103.137   82.656    26.559   L 
 H-H-0.355079         -1    102.69    81.881    27.027   L 
 H-H-0.355079         -1    103.516   83.385    27.147   L 
 C-C-0.617141         -1    106.371   83.25     23.928   L 
 O-O--0.523909        -1    106.522   82.027    24.089   L 
 N-N--0.423392        -1    106.816   83.879    22.823   L 
 H-H-0.306811         -1    106.727   84.882    22.741   L 
 C-CT-0.031633        -1    107.585   83.21     21.782   L 
 H-H1-0.065100        -1    107.179   82.2      21.741   L 
 C-CT-0.074772        -1    107.347   83.972    20.459   L 
 H-HC--0.003535       -1    106.343   84.393    20.408   L 
 H-HC--0.003535       -1    107.952   84.878    20.429   L 
 C-CT--0.033909       -1    107.657   83.227    19.15    L 
 H-HC--0.004135       -1    108.607   82.693    19.172   L 
 H-HC--0.004135       -1    106.778   82.608    18.973   L 
 C-C-0.765188         -1    107.716   84.218    17.953   L 
 O-O2--0.824035       -1    108.383   83.996    16.91    L 
 O-O2--0.824035       -1    106.984   85.235    17.946   L 
 C-C-0.469735         -1    109.043   83.129    22.253   L 
 O-O--0.592528        -1    109.691   82.149    21.93    L 
 N-N--0.487560        -1    109.559   84.114    23.014   L 
 H-H-0.263521         -1    108.864   84.846    23.038   L 
 C-CT-0.009614        -1    110.729   83.909    23.873   L 
 H-H1-0.095501        -1    111.382   83.463    23.124   L 
 C-CT--0.051853       -1    111.375   85.289    24.227   L 
 H-HC-0.019145        -1    110.568   85.823    24.729   L 
 H-HC-0.019145        -1    112.008   85.065    25.085   L 
 C-CA-0.112601        -1    112.035   86.111    23.092   L 
 C-CA--0.183461       -1    111.428   87.28     22.609   L 
 H-HA-0.132715        -1    110.508   87.662    23.025   L 
 C-CA--0.181823       -1    112.093   87.996    21.579   L 
 H-HA-0.137303        -1    111.655   88.936    21.274   L 
 C-C-0.206277         -1    113.208   87.452    20.946   L 
 O-OH--0.421233       -1    113.682   87.909    19.755   L 
 H-HO-0.329691        -1    113.135   88.603    19.38    L 
 C-CA--0.181823       -1    113.866   86.303    21.482   L 
 H-HA-0.137303        -1    114.772   85.875    21.079   L 
 C-CA--0.183461       -1    113.243   85.608    22.568   L 
 H-HA-0.132715        -1    113.591   84.617    22.818   L 
 C-C-0.622290         -1    110.634   82.882    25.001   L 
 O-O--0.526607        -1    111.405   81.907    25.114   L 
 N-N--0.423392        -1    109.506   82.984    25.709   L 
 H-H-0.306811         -1    108.813   83.672    25.452   L 
 C-CT-0.031633        -1    109.366   82.342    26.99    L 
 H-H1-0.065100        -1    110.31    82.449    27.523   L 
 C-CT-0.074772        -1    108.304   83.157    27.789   L 
 H-HC--0.003535       -1    108.649   84.181    27.648   L 
 H-HC--0.003535       -1    107.343   83.078    27.282   L 
 C-CT--0.033909       -1    108.357   82.811    29.261   L 
 H-HC--0.004135       -1    107.897   81.837    29.426   L 
 H-HC--0.004135       -1    109.351   82.797    29.709   L 
 C-C-0.765188         -1    107.571   83.926    29.879   L 
 O-O2--0.824035       -1    106.351   83.806    30.063   L 
 O-O2--0.824035       -1    108.243   84.949    30.304   L 
 C-C-0.469735         -1    108.933   80.825    27.052   L 
 O-O--0.592528        -1    109.347   80.112    27.929   L 
 N-N--0.245382        -1    108.177   80.367    26.016   L 
 H-H-0.255339         -1    107.966   80.891    25.179   L 
 C-CT--0.271249       -1    108.038   78.91     25.743   L 
 H-H1-0.163757        -1    107.843   78.408    26.69    L 
 C-CT-0.237868        -1    106.967   78.558    24.638   L 
 H-H1-0.044688        -1    107.025   77.518    24.317   L 
 C-CT--0.176489       -1    105.477   78.805    25.107   L 
 H-HC-0.060019        -1    105.313   79.742    25.64    L 
 H-HC-0.060019        -1    104.731   78.576    24.347   L 
 H-HC-0.060019        -1    105.163   78.03     25.807   L 
 O-OH--0.601931       -1    106.973   79.4      23.524   L 
 H-HO-0.405484        -1    106.583   80.231    23.804   L 
 C-C-0.559878         -1    109.346   78.313    25.238   L 
 O-O--0.552020        -1    109.873   77.407    25.794   L 
 N-N--0.300879        -1    110.023   78.986    24.217   L 
 H-H-0.233693         -1    109.422   79.737    23.909   L 
 C-CT--0.131381       -1    111.275   78.6      23.529   L 
 H-H1-0.053266        -1    111.163   77.545    23.278   L 
 C-CT-0.036707        -1    111.545   79.385    22.272   L 
 H-HC-0.028012        -1    111.527   80.436    22.559   L 
 H-HC-0.028012        -1    112.515   79.063    21.892   L 
 C-CT-0.012454        -1    110.572   79.087    21.247   L 
 H-HC-0.002964        -1    110.18    78.078    21.376   L 
 H-HC-0.002964        -1    109.657   79.669    21.358   L 
 C-CT-0.126329        -1    111.002   79.409    19.814   L 
 H-H1-0.068148        -1    111.94    78.885    19.629   L 
 H-H1-0.068148        -1    110.305   78.945    19.115   L 
 N-N2--0.464890       -1    111.108   80.851    19.54    L 
 H-H-0.326274         -1    110.806   81.544    20.21    L 
 C-CA-0.565543        -1    111.529   81.325    18.363   L 
 N-N2--0.685774       -1    111.955   80.604    17.413   L 
 H-H-0.391052         -1    111.96    79.597    17.49    L 
 H-H-0.391052         -1    112.142   81.024    16.514   L 
 N-N2--0.685774       -1    111.476   82.587    18.011   L 
 H-H-0.391052         -1    111.136   83.294    18.647   L 
 H-H-0.391052         -1    111.743   82.744    17.05    L 
 C-C-0.730308         -1    112.521   78.611    24.527   L 
 O-O--0.578332        -1    113.542   77.983    24.239   L 
 N-N--0.404773        -1    112.338   79.194    25.687   L 
 H-H-0.294276         -1    111.426   79.599    25.841   L 
 C-CT--0.027733       -1    113.258   79.102    26.753   L 
 H-H1-0.120802        -1    114.264   79.238    26.356   L 
 C-CT--0.229951       -1    112.966   80.28     27.644   L 
 H-HC-0.077428        -1    111.962   80.36     28.06    L 
 H-HC-0.077428        -1    113.629   80.225    28.507   L 
 H-HC-0.077428        -1    113.145   81.218    27.118   L 
 C-C-0.570224         -1    113.094   77.75     27.449   L 
 O-O--0.555129        -1    114.022   77.173    27.939   L 
 N-N--0.450087        -1    111.865   77.24     27.602   L 
 H-H-0.440048         -1    111.109   77.871    27.377   L 
 C-CT--0.051858       -1    111.652   75.86     28.122   L 
 H-H1--0.026204       -1    112.254   75.777    29.027   L 
 C-CT-0.395217        -1    110.17    75.629    28.532   L 
 H-HC--0.115672       -1    109.489   75.557    27.684   L 
 C-CT--0.090132       -1    110.081   74.341    29.321   L 
 H-HC--0.008985       -1    110.79    74.379    30.148   L 
 H-HC--0.008985       -1    109.055   74.24     29.676   L 
 H-HC--0.008985       -1    110.314   73.485    28.687   L 
 C-CT--0.090132       -1    109.582   76.77     29.454   L 
 H-HC--0.008985       -1    109.475   77.697    28.891   L 
 H-HC--0.008985       -1    108.544   76.464    29.584   L 
 H-HC--0.008985       -1    110.066   76.942    30.416   L 
 C-C-0.447359         -1    112.084   74.768    27.096   L 
 O-O--0.404629        -1    112.739   73.772    27.368   L 
 N-N--0.423392        -1    111.816   75.013    25.8     L 
 H-H-0.306811         -1    111.164   75.744    25.554   L 
 C-CT-0.031633        -1    112.403   74.242    24.717   L 
 H-H1-0.065100        -1    112.188   73.184    24.862   L 
 C-CT-0.074772        -1    111.72    74.704    23.485   L 
 H-HC--0.003535       -1    110.659   74.867    23.67    L 
 H-HC--0.003535       -1    112.208   75.619    23.147   L 
 C-CT--0.033909       -1    111.826   73.725    22.272   L 
 H-HC--0.004135       -1    112.82    73.313    22.098   L 
 H-HC--0.004135       -1    111.274   72.854    22.624   L 
 C-C-0.765188         -1    111.098   74.208    21.008   L 
 O-O2--0.824035       -1    109.888   74.609    21.072   L 
 O-O2--0.824035       -1    111.761   74.367    19.954   L 
 C-C-0.469735         -1    113.942   74.226    24.562   L 
 O-O--0.592528        -1    114.408   73.318    23.882   L 
 N-N--0.355153        -1    114.671   75.138    25.256   L 
 H-H-0.262417         -1    114.123   75.842    25.729   L 
 C-CT--0.101497       -1    116.173   75.086    25.441   L 
 H-H1-0.136951        -1    116.641   74.513    24.641   L 
 C-CT--0.144399       -1    116.746   76.539    25.47    L 
 H-HC-0.052533        -1    116.124   77.107    26.162   L 
 H-HC-0.052533        -1    117.747   76.598    25.897   L 
 C-CT-0.191982        -1    116.823   77.281    24.105   L 
 H-HC-0.000825        -1    115.852   77.156    23.625   L 
 C-CT--0.123036       -1    117.147   78.824    24.317   L 
 H-HC-0.022376        -1    117.312   79.367    23.386   L 
 H-HC-0.022376        -1    116.332   79.251    24.9     L 
 H-HC-0.022376        -1    118.082   78.935    24.866   L 
 C-CT--0.123036       -1    117.882   76.757    23.217   L 
 H-HC-0.022376        -1    117.872   77.402    22.338   L 
 H-HC-0.022376        -1    118.868   76.668    23.673   L 
 H-HC-0.022376        -1    117.664   75.745    22.876   L 
 C-C-0.573471         -1    116.592   74.323    26.67    L 
 O-O--0.557847        -1    117.526   73.483    26.72    L 
 N-N--0.371290        -1    115.8     74.506    27.749   L 
 H-H-0.234053         -1    115.01    75.133    27.689   L 
 C-CT--0.030057       -1    115.998   73.756    29.084   L 
 H-H1-0.102448        -1    116.975   74.016    29.49    L 
 C-CT--0.098720       -1    114.992   74.275    30.09    L 
 H-HC-0.060989        -1    115.207   75.321    30.308   L 
 H-HC-0.060989        -1    114.003   74.291    29.633   L 
 C-CA-0.021313        -1    114.859   73.426    31.397   L 
 C-CA--0.083109       -1    115.639   73.648    32.549   L 
 H-HA-0.098466        -1    116.412   74.402    32.566   L 
 C-CA--0.156974       -1    115.471   72.767    33.61    L 
 H-HA-0.123731        -1    116.059   72.959    34.495   L 
 C-CA--0.099824       -1    114.488   71.819    33.684   L 
 H-HA-0.114679        -1    114.361   71.285    34.614   L 
 C-CA--0.156974       -1    113.706   71.536    32.552   L 
 H-HA-0.123731        -1    112.937   70.778    32.592   L 
 C-CA--0.083109       -1    113.912   72.379    31.46    L 
 H-HA-0.098466        -1    113.243   72.314    30.615   L 
 C-C-0.547987         -1    115.852   72.219    28.897   L 
 O-O--0.506795        -1    116.679   71.435    29.277   L 
 N-N--0.245382        -1    114.704   71.795    28.266   L 
 H-H-0.255339         -1    114.121   72.543    27.919   L 
 C-CT--0.271249       -1    114.248   70.412    28.149   L 
 H-H1-0.163757        -1    114.245   69.943    29.132   L 
 C-CT-0.237868        -1    112.832   70.314    27.519   L 
 H-H1-0.044688        -1    112.621   69.336    27.085   L 
 C-CT--0.176489       -1    111.671   70.703    28.421   L 
 H-HC-0.060019        -1    111.131   71.62     28.184   L 
 H-HC-0.060019        -1    111.006   69.853    28.575   L 
 H-HC-0.060019        -1    112.104   70.908    29.4     L 
 O-OH--0.601931       -1    112.827   71.219    26.378   L 
 H-HO-0.405484        -1    112.75    72.103    26.743   L 
 C-C-0.559878         -1    115.307   69.659    27.235   L 
 O-O--0.552020        -1    115.7     68.518    27.446   L 
 N-N--0.423392        -1    115.938   70.357    26.319   L 
 H-H-0.306811         -1    115.634   71.319    26.28    L 
 C-CT-0.031633        -1    116.972   69.827    25.381   L 
 H-H1-0.065100        -1    116.487   68.913    25.036   L 
 C-CT-0.074772        -1    117.107   70.869    24.15    L 
 H-HC--0.003535       -1    117.221   71.917    24.425   L 
 H-HC--0.003535       -1    117.988   70.561    23.586   L 
 C-CT--0.033909       -1    115.936   70.704    23.179   L 
 H-HC--0.004135       -1    114.932   70.879    23.565   L 
 H-HC--0.004135       -1    115.972   71.392    22.334   L 
 C-C-0.765188         -1    116.055   69.321    22.526   L 
 O-O2--0.824035       -1    116.923   69.025    21.715   L 
 O-O2--0.824035       -1    115.379   68.338    22.9     L 
 C-C-0.469735         -1    118.34    69.571    26.072   L 
 O-O--0.592528        -1    119.198   68.897    25.449   L 
 N-N--0.396165        -1    118.598   69.931    27.305   L 
 H-H-0.295187         -1    117.785   70.316    27.764   L 
 C-CT--0.073501       -1    119.649   69.408    28.152   L 
 H-H1-0.140510        -1    120.134   68.586    27.625   L 
 C-CT--0.221371       -1    120.709   70.399    28.551   L 
 H-H1-0.146537        -1    121.595   69.91     28.955   L 
 H-H1-0.146537        -1    121.011   71.059    27.738   L 
 S-SH--0.285182       -1    120.101   71.463    29.889   L 
 H-HS-0.189274        -1    118.978   71.909    29.318   L 
 C-C-0.643035         -1    119.112   68.571    29.297   L 
 O-O--0.584861        -1    119.582   67.458    29.56    L 
 N-N--0.487560        -1    118.018   69.02     29.947   L 
 H-H-0.263521         -1    117.722   69.963    29.738   L 
 C-CT-0.009614        -1    117.419   68.288    31.065   L 
 H-H1-0.095501        -1    118.241   68.316    31.78    L 
 C-CT--0.051853       -1    116.228   68.988    31.685   L 
 H-HC-0.019145        -1    116.247   70.077    31.636   L 
 H-HC-0.019145        -1    115.31    68.765    31.141   L 
 C-CA-0.112601        -1    115.934   68.661    33.135   L 
 C-CA--0.183461       -1    114.632   68.226    33.499   L 
 H-HA-0.132715        -1    113.987   68.061    32.649   L 
 C-CA--0.181823       -1    114.307   67.969    34.842   L 
 H-HA-0.137303        -1    113.29    67.677    35.061   L 
 C-C-0.206277         -1    115.344   68.092    35.881   L 
 O-OH--0.421233       -1    115.067   67.845    37.184   L 
 H-HO-0.329691        -1    114.164   67.55     37.325   L 
 C-CA--0.181823       -1    116.584   68.693    35.506   L 
 H-HA-0.137303        -1    117.305   68.924    36.277   L 
 C-CA--0.183461       -1    116.902   68.963    34.182   L 
 H-HA-0.132715        -1    117.879   69.364    33.955   L 
 C-C-0.622290         -1    117.141   66.828    30.819   L 
 O-O--0.526607        -1    117.138   65.951    31.703   L 
 N-N--0.541430        -1    116.872   66.439    29.615   L 
 H-H-0.345415         -1    116.829   67.178    28.928   L 
 C-CT-0.118140        -1    116.585   65.091    29.11    L 
 H-H1-0.142177        -1    115.874   64.58     29.759   L 
 C-CT-0.146998        -1    116.027   65.125    27.621   L 
 H-H1-0.040081        -1    116.044   64.145    27.142   L 
 H-H1-0.040081        -1    115.038   65.572    27.526   L 
 O-OH--0.640312       -1    116.863   65.991    26.905   L 
 H-HO-0.446255        -1    116.488   66.875    26.921   L 
 C-C-0.483424         -1    117.786   64.146    29.032   L 
 O-O--0.580829        -1    117.612   62.967    29.203   L 
 N-N--0.541430        -1    119.024   64.718    28.949   L 
 H-H-0.345415         -1    119.05    65.714    29.115   L 
 C-CT-0.118140        -1    120.218   63.923    28.955   L 
 H-H1-0.142177        -1    119.957   62.93     28.589   L 
 C-CT-0.146998        -1    121.247   64.506    27.955   L 
 H-H1-0.040081        -1    121.519   65.525    28.231   L 
 H-H1-0.040081        -1    122.049   63.768    27.978   L 
 O-OH--0.640312       -1    120.732   64.424    26.655   L 
 H-HO-0.446255        -1    121.034   65.212    26.197   L 
 C-C-0.483424         -1    120.775   63.767    30.293   L 
 O-O--0.580829        -1    121.295   62.691    30.641   L 
 N-N--0.558201        -1    120.693   64.794    31.111   L 
 H-H-0.319676         -1    120.268   65.611    30.696   L 
 C-CT-0.007225        -1    121.419   64.897    32.421   L 
 H-H1-0.082375        -1    121.198   63.973    32.956   L 
 C-CT--0.047555       -1    122.982   65.021    32.077   L 
[...]
 -1,103.003,75.852,41.927\H,-1,103.663,74.998,42.073\H,-1,102.407,76.00
 3,42.827\C,-1,101.999,75.607,40.767\H,-1,101.444,76.536,40.641\H,-1,10
 2.588,75.343,39.889\C,-1,101.117,74.507,41.075\H,-1,101.751,73.623,41.
 \H,-1,100.554,74.625,42.001\N,-1,100.122,74.418,40.031\H,-1,99.459,73.
 67,40.178\H,-1,99.427,75.139,40.166\H,-1,100.58,74.369,39.132\C,-1,105
 .868,78.38,42.545\O,-1,106.989,77.928,42.379\N,-1,105.665,79.704,42.47
 9\H,-1,104.688,79.956,42.537\C,-1,106.712,80.731,42.218\H,-1,107.296,8
 0.345,41.382\C,-1,105.871,81.938,41.785\H,-1,105.275,81.626,40.928\H,-
 1,105.143,82.098,42.58\C,-1,106.567,83.186,41.337\C,-1,106.919,83.414,
 40.038\H,-1,106.719,82.694,39.258\C,-1,107.502,84.597,39.653\H,-1,107.
 811,84.708,38.624\C,-1,107.798,85.626,40.518\H,-1,108.222,86.55,40.153
 \C,-1,107.407,85.434,41.825\H,-1,107.661,86.143,42.599\C,-1,106.806,84
 .209,42.261\H,-1,106.475,84.128,43.286\C,-1,107.45,80.946,43.536\O,-1,
 108.704,80.978,43.474\N,-1,106.808,81.053,44.655\H,-1,105.814,81.232,4
 4.645\C,-1,107.551,81.248,45.937\H,-1,108.265,82.059,45.793\C,-1,106.5
 32,81.541,47.029\H,-1,105.664,80.918,46.812\H,-1,106.882,81.349,48.044
 \C,-1,106.189,83.003,47.105\H,-1,105.726,83.466,46.234\H,-1,105.439,83
 .081,47.892\C,-1,107.305,83.88,47.575\O,-1,108.118,83.415,48.374\N,-1,
 107.29,85.124,47.304\H,-1,107.997,85.651,47.796\H,-1,106.487,85.424,46
 .77\C,-1,108.398,80.003,46.4\O,-1,109.382,80.059,47.113\N,-1,108.126,7
 8.82,45.773\H,-1,107.23,78.774,45.309\C,-1,108.867,77.595,45.888\H,-1,
 108.922,77.277,46.929\C,-1,108.211,76.512,45.04\H,-1,107.144,76.504,45
 .262\H,-1,108.267,76.588,43.954\C,-1,108.776,75.032,45.307\H,-1,109.86
 ,75.086,45.208\H,-1,108.679,74.847,46.377\C,-1,108.023,73.971,44.437\H
 ,-1,106.942,74.056,44.55\H,-1,108.275,74.057,43.38\N,-1,108.547,72.626
 ,44.831\H,-1,109.402,72.638,45.369\C,-1,108.314,71.452,44.204\N,-1,107
 .734,71.458,43.053\H,-1,107.524,72.389,42.723\H,-1,107.833,70.69,42.40
 5\N,-1,108.818,70.34,44.722\H,-1,109.183,70.359,45.664\H,-1,108.56,69.
 446,44.331\C,-1,110.374,77.804,45.452\O,-1,111.231,77.014,45.833\N,-1,
 110.595,78.741,44.567\H,-1,109.771,79.245,44.273\C,-1,111.929,79.271,4
 4.357\H,-1,112.536,78.428,44.026\C,-1,111.814,80.215,43.133\H,-1,111.4
 32,79.542,42.365\H,-1,111.143,81.069,43.222\C,-1,113.121,80.819,42.602
 \C,-1,113.291,82.202,42.67\H,-1,112.446,82.775,43.022\C,-1,114.478,82.
 807,42.127\H,-1,114.615,83.878,42.127\C,-1,115.513,81.974,41.742\O,-1,
 116.735,82.375,41.315\H,-1,117.244,81.578,41.147\C,-1,115.324,80.541,4
 1.782\H,-1,116.141,79.943,41.403\C,-1,114.189,80.002,42.247\H,-1,114.0
 8,78.929,42.307\C,-1,112.593,80.08,45.447\O,-1,113.768,79.947,45.747\N
 ,-1,111.865,81.027,45.977\H,-1,110.989,81.189,45.502\C,-1,112.328,81.7
 92,47.157\H,-1,113.255,82.256,46.819\C,-1,111.299,82.885,47.479\H,-1,1
 10.321,82.441,47.664\H,-1,111.576,83.322,48.438\C,-1,111.137,83.91,46.
 372\C,-1,111.807,85.115,46.513\H,-1,112.343,85.33,47.426\C,-1,111.691,
 86.122,45.617\H,-1,112.031,87.135,45.775\C,-1,111.018,85.873,44.403\H,
 -1,110.992,86.607,43.611\C,-1,110.345,84.647,44.188\H,-1,109.736,84.52
 8,43.305\C,-1,110.476,83.691,45.184\H,-1,110.104,82.699,44.971\C,-1,11
 2.568,80.755,48.331\O,-1,113.35,81.118,49.211\N,-1,111.856,79.621,48.4
 95\H,-1,111.052,79.508,47.895\C,-1,112.223,78.573,49.507\H,-1,112.31,7
 9.039,50.489\C,-1,111.173,77.464,49.489\H,-1,110.959,77.139,48.47\H,-1
 ,111.611,76.584,49.96\C,-1,109.828,77.833,50.17\H,-1,109.407,78.618,49
 .541\C,-1,108.925,76.593,50.018\H,-1,108.462,76.456,49.041\H,-1,109.57
 7,75.754,50.259\H,-1,108.139,76.594,50.773\C,-1,109.885,78.347,51.593\
 H,-1,110.012,77.453,52.204\H,-1,110.752,79.008,51.61\H,-1,108.931,78.8
 21,51.821\C,-1,113.64,78.025,49.23\O,-1,114.315,77.679,50.185\N,-1,114
 .117,77.966,47.981\H,-1,113.643,78.289,47.15\C,-1,115.426,77.366,47.79
 \H,-1,115.621,76.7,48.63\C,-1,115.655,76.426,46.582\H,-1,116.732,76.51
 7,46.44\C,-1,115.222,74.975,46.827\H,-1,115.046,74.492,45.866\H,-1,116
 .009,74.425,47.343\H,-1,114.332,74.963,47.455\C,-1,114.901,77.002,45.3
 34\H,-1,113.813,76.946,45.37\H,-1,115.12,78.055,45.157\H,-1,115.255,76
 .493,44.438\C,-1,116.505,78.442,47.681\O,-1,117.642,78.183,48.085\N,-1
 ,116.218,79.685,47.295\H,-1,115.327,79.844,46.846\C,-1,117.101,80.867,
 47.436\H,-1,117.994,80.65,46.85\C,-1,116.473,82.058,46.714\H,-1,115.40
 6,82.096,46.93\H,-1,116.952,82.946,47.126\C,-1,116.683,82.035,45.246\H
 ,-1,116.099,81.207,44.846\H,-1,116.271,82.964,44.852\C,-1,118.136,81.9
 43,44.914\O,-1,118.961,82.742,45.218\N,-1,118.631,80.886,44.311\H,-1,1
 19.553,80.999,43.913\H,-1,117.988,80.154,44.045\C,-1,117.415,81.241,48
 .911\O,-1,118.513,81.527,49.207\N,0,116.479948,81.022888,49.836574\H,0
 ,115.519061,80.903656,49.539221\C,0,116.75836,80.945578,51.277157\H,0,
 117.064858,81.9406,51.595497\C,0,115.443134,80.571811,51.982076\H,0,11
 4.650814,81.237581,51.639289\H,0,115.169581,79.559843,51.690578\C,0,11
 5.476621,80.623902,53.511473\H,0,114.492565,80.328319,53.874822\H,0,11
 6.205068,79.903424,53.8832\C,0,115.782943,82.001506,54.086974\O,0,115.
 746706,83.020632,53.36674\O,0,116.008056,82.090476,55.311574\C,0,117.9
 11853,79.974098,51.637435\O,0,118.663784,80.198342,52.585978\N,-1,118.
 066,78.874,50.901\H,-1,117.419,78.673,50.152\C,-1,119.127,77.856,50.98
 2\H,-1,119.267,77.73,52.056\C,-1,118.634,76.447,50.626\H,-1,117.617,76
 .24,50.958\H,-1,118.538,76.262,49.556\C,-1,119.583,75.376,51.124\C,-1,
 120.339,74.68,50.089\H,-1,120.359,75.056,49.077\C,-1,121.184,73.615,50
 .478\H,-1,121.737,72.934,49.849\C,-1,121.216,73.184,51.799\O,-1,121.93
 1,72.095,52.176\H,-1,122.424,71.623,51.502\C,-1,120.492,73.853,52.843\
 H,-1,120.646,73.567,53.873\C,-1,119.627,74.957,52.457\H,-1,119.081,75.
 431,53.259\C,-1,120.445,78.109,50.188\O,-1,121.459,77.632,50.646\N,-1,
 120.464,78.746,49.017\H,-1,119.62,79.139,48.625\C,-1,121.6,78.752,48.0
 62\H,-1,121.801,77.708,47.821\C,-1,121.182,79.58,46.88\H,-1,121.876,79
 .36,46.069\H,-1,120.166,79.295,46.606\S,-1,121.241,81.389,47.277\H,-1,
 120.118,81.592,46.584\C,-1,122.905,79.395,48.716\O,-1,123.964,79.311,4
 8.11\N,-1,122.799,80.004,49.907\H,-1,121.929,79.905,50.411\C,-1,123.79
 8,80.612,50.799\H,-1,124.588,81.01,50.162\C,-1,123.174,81.758,51.591\H
 ,-1,123.944,82.139,52.261\H,-1,122.734,82.497,50.922\O,-1,122.109,81.2
 69,52.331\H,-1,122.308,81.547,53.228\C,-1,124.444,79.696,51.754\O,-1,1
 25.545,79.938,52.263\N,0,123.776157,78.600511,52.14195\H,0,122.929924,
 78.357098,51.638814\C,0,124.14928,77.779077,53.305875\H,0,124.481555,7
 8.452586,54.09752\C,0,122.927457,77.001855,53.838091\H,0,122.705433,76
 .191495,53.140714\H,0,123.187646,76.550747,54.796898\C,0,121.637349,77
 .824055,54.019091\H,0,121.325311,78.19638,53.048214\H,0,120.853395,77.
 151534,54.369734\C,0,121.699261,79.022104,54.975564\H,0,121.768802,78.
 654575,55.999115\H,0,122.575629,79.634332,54.759532\N,0,120.482375,79.
 828934,54.784888\H,0,120.106199,79.872674,53.841541\C,0,119.668073,80.
 33875,55.695132\N,0,119.95236,80.459077,56.965049\H,0,120.829767,80.09
 9771,57.340085\H,0,119.260314,80.84949,57.585934\N,0,118.487395,80.728
 583,55.301492\H,0,118.283689,80.683887,54.308112\H,0,117.759433,80.977
 559,55.960815\C,0,125.305019,76.805634,53.003252\O,0,125.538578,76.399
 944,51.867669\N,-1,126.027,76.398,54.05\H,-1,125.766,76.709,54.975\C,-
 1,126.899,75.26,54.125\H,-1,127.4,75.121,53.166\C,-1,127.92,75.483,55.
 245\H,-1,127.404,75.732,56.172\H,-1,128.35,74.503,55.453\C,-1,129.119,
 76.482,55.068\H,-1,129.536,76.304,54.077\C,-1,128.625,77.916,55.16\H,-
 1,128.158,78.205,54.219\H,-1,127.866,77.855,55.94\H,-1,129.455,78.569,
 55.431\C,-1,130.24,76.373,56.101\H,-1,131.043,77.097,55.962\H,-1,129.8
 66,76.481,57.119\H,-1,130.7,75.39,56.008\C,-1,126.17,74.001,54.413\O,-
 1,125.017,73.959,54.867\N,-1,126.784,72.883,54.04\H,-1,127.577,72.964,
 53.42\C,-1,126.229,71.514,54.168\H,-1,125.167,71.528,53.924\C,-1,126.9
 13,70.656,53.034\H,-1,127.122,71.311,52.189\H,-1,127.879,70.372,53.45\
 C,-1,126.143,69.412,52.636\O,-1,125.65,69.328,51.502\N,-1,125.831,68.5
 18,53.557\H,-1,125.091,67.85,53.393\H,-1,126.144,68.713,54.497\C,-1,12
 6.323,70.921,55.611\O,-1,126.564,69.78,55.909\N,-1,126.189,71.895,56.5
 51\H,-1,126.066,72.821,56.166\C,-1,126.565,71.727,57.936\H,-1,126.683,
 70.682,58.222\C,-1,127.963,72.329,58.175\H,-1,128.021,73.332,57.751\C,
 -1,128.194,72.559,59.679\H,-1,127.471,73.292,60.038\H,-1,128.111,71.61
 2,60.211\H,-1,129.227,72.901,59.752\C,-1,129.146,71.43,57.671\H,-1,129
 .967,71.441,58.388\H,-1,128.903,70.379,57.512\C,-1,129.718,71.975,56.3
 37\H,-1,130.526,72.664,56.58\H,-1,130.14,71.177,55.726\H,-1,128.969,72
 .37,55.651\C,-1,125.466,72.518,58.741\O,-1,125.343,73.727,58.577\N,-1,
 124.689,71.847,59.614\C,-1,124.912,70.429,60.007\H,-1,125.955,70.328,6
 0.307\H,-1,124.771,69.802,59.126\C,-1,123.946,70.131,61.165\H,-1,124.5
 31,70.15,62.084\H,-1,123.453,69.17,61.014\C,-1,122.913,71.263,60.955\H
 ,-1,122.355,71.502,61.861\H,-1,122.17,71.008,60.199\C,-1,123.608,72.45
 3,60.373\H,-1,122.97,73.035,59.707\C,-1,124.172,73.473,61.374\O,-1,125
 .265,73.333,61.855\N,0,123.387321,74.534739,61.606659\H,0,122.479571,7
 4.531921,61.15201\C,0,123.83122,75.826853,62.136223\H,0,124.47537,76.2
 33802,61.357312\C,0,122.666074,76.832643,62.233153\H,0,123.097452,77.8
 30665,62.33258\H,0,122.12672,76.830825,61.283926\C,0,121.668975,76.649
 786,63.364518\C,0,121.959139,77.147652,64.649111\H,0,122.901368,77.636
 697,64.83317\C,0,121.023428,77.023387,65.691298\H,0,121.246617,77.4276
 49,66.667049\C,0,119.788805,76.395919,65.455447\H,0,119.06463,76.30387
 7,66.253337\C,0,119.49396,75.900979,64.173591\H,0,118.543618,75.429146
 ,63.981997\C,0,120.42752,76.029607,63.130713\H,0,120.178323,75.664863,
 62.146767\C,0,124.722712,75.778549,63.393074\O,0,125.667074,76.57084,6
 3.440455\N,0,124.506482,74.886659,64.388724\C,0,123.399729,73.945107,6
 4.546376\H,0,123.594652,73.0497,63.956562\H,0,122.441564,74.373784,64.
 263156\C,0,123.386593,73.565521,66.022774\H,0,122.953006,72.579798,66.
 184552\H,0,122.855527,74.326748,66.596964\C,0,124.870243,73.589737,66.
 368439\H,0,125.332181,72.655357,66.046064\H,0,125.034419,73.748308,67.
 434835\C,0,125.401915,74.758873,65.534147\H,0,125.312947,75.671004,66.
 125923\C,0,126.884709,74.558659,65.191256\O,0,127.724263,74.951906,65.
 997511\N,-1,127.258,73.955,64.048\H,-1,126.674,73.664,63.277\C,-1,128.
 702,73.501,63.835\H,-1,129.211,73.461,64.798\C,-1,128.705,71.986,63.30
 9\H,-1,128.157,71.938,62.367\H,-1,129.699,71.648,63.014\C,-1,128.104,7
 0.953,64.202\C,-1,128.873,70.31,65.159\H,-1,129.934,70.491,65.253\C,-1
 ,128.217,69.391,65.99\H,-1,128.785,68.995,66.819\C,-1,126.817,69.348,6
 6.026\H,-1,126.3,68.729,66.745\C,-1,126.005,69.934,65.01\H,-1,124.926,
 69.904,65.068\C,-1,126.707,70.778,64.127\H,-1,126.172,71.391,63.417\C,
 -1,129.419,74.437,62.847\O,-1,130.538,74.083,62.427\N,0,128.842092,75.
 582403,62.471264\H,0,127.920018,75.786959,62.850627\C,0,129.390829,76.
 393905,61.375364\H,0,129.540644,75.722853,60.527783\C,0,128.419572,77.
 484844,60.873831\H,0,128.912303,77.988223,60.04142\C,0,127.169662,76.8
 03659,60.287067\H,0,126.645949,76.24159,61.055462\H,0,126.494225,77.54
 3244,59.857635\H,0,127.461273,76.114772,59.493192\C,0,128.115325,78.56
 0043,61.941366\H,0,127.635896,78.106189,62.806869\H,0,129.056528,78.99
 8164,62.272759\C,0,127.237169,79.707602,61.425386\H,0,126.213871,79.36
 2941,61.273659\H,0,127.227554,80.511837,62.160374\H,0,127.633306,80.09
 7539,60.488175\C,0,130.791722,76.941139,61.646744\O,0,131.544124,77.04
 4724,60.694376\N,-1,131.187,77.237,62.891\H,-1,130.578,77.004,63.663\C
 ,-1,132.436,77.908,63.196\H,-1,132.615,78.664,62.431\C,-1,132.449,78.7
 01,64.504\H,-1,132.464,77.984,65.324\C,-1,133.749,79.529,64.637\H,-1,1
 33.892,80.185,63.778\H,-1,133.8,80.026,65.605\H,-1,134.671,78.959,64.5
 3\C,-1,131.249,79.643,64.68\H,-1,130.945,80.103,63.74\H,-1,130.399,78.
 988,64.873\H,-1,131.471,80.362,65.469\C,-1,133.553,76.903,63.13\O,-1,1
 34.71,77.151,62.71\N,-1,133.19,75.624,63.196\H,-1,132.244,75.541,63.54
 1\C,-1,134.047,74.468,62.863\H,-1,135.057,74.615,63.246\C,-1,133.568,7
 3.158,63.53\H,-1,132.635,72.746,63.146\H,-1,134.283,72.369,63.297\C,-1
 ,133.478,73.262,65.12\C,-1,134.689,73.223,65.896\H,-1,135.659,73.4,65.
 456\C,-1,134.643,72.917,67.281\H,-1,135.627,72.769,67.702\C,-1,133.463
 ,72.77,67.94\H,-1,133.394,72.629,69.008\C,-1,132.266,72.849,67.221\H,-
 1,131.297,72.787,67.694\C,-1,132.24,73.106,65.849\H,-1,131.29,73.183,6
 5.341\C,-1,134.191,74.256,61.358\O,-1,135.314,73.989,60.866\N,-1,133.1
 15,74.464,60.591\H,-1,132.24,74.646,61.06\C,-1,133.104,74.436,59.151\H
 ,-1,133.589,73.547,58.748\C,-1,131.71,74.357,58.532\H,-1,131.053,73.57
 ,58.902\H,-1,131.189,75.283,58.773\H,-1,131.826,74.308,57.449\C,-1,133
 .944,75.575,58.633\O,-1,134.766,75.461,57.646\N,-1,133.955,76.766,59.2
 91\H,-1,133.203,76.941,59.943\C,-1,134.82,77.907,58.882\H,-1,134.759,7
 7.847,57.795\C,-1,134.389,79.302,59.336\H,-1,134.265,79.163,60.41\H,-1
 ,135.145,80.029,59.04\C,-1,133.109,79.726,58.659\C,-1,131.898,79.724,5
 9.355\H,-1,131.907,79.49,60.41\C,-1,130.68,80.087,58.823\H,-1,129.755,
 80.004,59.374\C,-1,130.653,80.478,57.449\O,-1,129.492,80.816,56.862\H,
 -1,128.755,80.656,57.456\C,-1,131.844,80.627,56.704\H,-1,131.842,81.05
 7,55.713\C,-1,133.049,80.153,57.31\H,-1,133.987,80.195,56.777\C,-1,136
 .311,77.583,59.209\O,-1,137.242,78.08,58.605\N,-1,136.568,76.922,60.32
 5\H,-1,135.79,76.609,60.887\C,-1,137.924,76.412,60.746\H,-1,138.606,77
 .261,60.789\C,-1,137.973,75.76,62.182\H,-1,137.568,76.533,62.836\H,-1,
 137.365,74.864,62.314\C,-1,139.318,75.379,62.802\C,-1,140.534,75.924,6
 2.278\H,-1,140.568,76.677,61.504\C,-1,141.739,75.601,62.936\H,-1,142.6
 85,75.979,62.577\C,-1,141.77,74.693,64.002\H,-1,142.656,74.419,64.554\
 C,-1,140.575,74.249,64.618\H,-1,140.523,73.803,65.601\C,-1,139.39,74.6
 09,63.984\H,-1,138.46,74.257,64.406\C,-1,138.462,75.38,59.763\O,-1,139
 .624,75.404,59.439\N,-1,137.551,74.458,59.364\H,-1,136.653,74.417,59.8
 24\C,-1,137.928,73.326,58.493\H,-1,138.698,72.725,58.978\C,-1,136.72,7
 2.43,58.224\H,-1,136.36,72.217,59.231\H,-1,135.939,73.048,57.78\C,-1,1
 36.959,71.123,57.378\C,-1,137.668,70.116,57.983\H,-1,137.888,70.168,59
 .039\C,-1,137.88,68.853,57.424\H,-1,138.441,68.113,57.976\C,-1,137.393
 ,68.684,56.102\O,-1,137.453,67.454,55.531\H,-1,137.957,66.854,56.085\C
 ,-1,136.732,69.727,55.376\H,-1,136.343,69.466,54.403\C,-1,136.467,70.9
 54,56.098\H,-1,135.915,71.806,55.728\C,-1,138.474,73.886,57.161\O,-1,1
 39.575,73.569,56.736\N,-1,137.726,74.828,56.519\H,-1,136.844,75.114,56
 .921\C,-1,138.121,75.398,55.257\H,-1,138.061,74.613,54.503\C,-1,136.99
 5,76.282,54.746\H,-1,137.321,76.61,53.759\H,-1,136.09,75.691,54.609\C,
 -1,136.649,77.495,55.594\H,-1,136.282,77.16,56.564\H,-1,137.593,78.025
 ,55.723\S,-1,135.438,78.489,54.734\C,-1,133.87,77.641,54.904\H,-1,133.
 996,76.693,54.381\H,-1,133.564,77.507,55.942\H,-1,133.134,78.303,54.45
 \C,-1,139.546,76.003,55.119\O,-1,140.215,75.769,54.105\N,-1,139.995,76
 .755,56.169\H,-1,139.35,77.01,56.903\C,-1,141.24,77.509,56.064\H,-1,14
 1.42,77.873,55.052\C,-1,141.406,78.706,56.938\H,-1,142.207,79.381,56.6
 37\C,-1,140.128,79.543,56.961\H,-1,139.937,79.934,55.962\H,-1,139.27,7
 8.972,57.317\H,-1,140.233,80.352,57.684\C,-1,141.638,78.229,58.443\H,-
 1,141.332,77.211,58.682\H,-1,142.699,78.286,58.688\H,-1,141.267,78.975
 ,59.146\C,-1,142.463,76.617,56.228\O,-1,143.531,77.025,55.775\N,-1,142
 .325,75.364,56.72\H,-1,141.433,75.022,57.05\C,-1,143.329,74.279,56.776
 \H,-1,144.289,74.743,57.002\C,-1,142.98,73.267,57.875\H,-1,141.988,72.
 859,57.678\C,-1,144.095,72.269,57.925\H,-1,145.095,72.649,57.714\H,-1,
 144.206,71.855,58.927\H,-1,144.003,71.482,57.177\C,-1,142.86,73.904,59
 .238\H,-1,141.96,74.518,59.223\H,-1,142.836,73.157,60.031\H,-1,143.77,
 74.492,59.355\C,-1,143.411,73.542,55.368\O,-1,144.382,72.939,55.073\N,
 -1,142.331,73.594,54.59\H,-1,141.536,74.155,54.858\C,-1,142.242,72.988
 ,53.232\H,-1,142.979,72.185,53.217\C,-1,140.917,72.253,52.994\H,-1,140
 .166,72.976,53.311\H,-1,140.901,71.852,51.981\C,-1,140.809,70.991,53.8
 23\H,-1,141.758,70.469,53.697\H,-1,140.802,71.228,54.887\C,-1,139.67,7
 0.04,53.434\H,-1,139.77,69.139,54.038\H,-1,138.735,70.483,53.778\C,-1,
 139.58,69.48,52.077\H,-1,138.855,68.666,52.097\H,-1,139.124,70.201,51.
 399\N,-1,140.942,68.916,51.721\H,-1,141.611,69.667,51.63\H,-1,141.325,
 68.287,52.413\H,-1,140.859,68.464,50.822\C,-1,142.702,73.859,52.067\O,
 -1,142.821,75.071,52.225\N,-1,142.894,73.225,50.916\H,-1,142.87,72.215
 ,50.912\C,-1,143.104,73.917,49.64\H,-1,143.449,74.944,49.757\C,-1,144.
 189,73.16,48.798\H,-1,144.067,72.077,48.788\H,-1,144.029,73.55,47.792\
 C,-1,145.663,73.466,49.188\H,-1,145.818,74.541,49.095\H,-1,145.692,73.
 261,50.258\C,-1,146.729,72.712,48.424\H,-1,146.657,72.944,47.361\H,-1,
 147.669,73.144,48.767\C,-1,146.786,71.189,48.717\H,-1,146.815,70.926,4
 9.775\H,-1,145.866,70.712,48.38\N,-1,147.869,70.443,48.024\H,-1,147.63
 1,69.472,47.882\H,-1,148.044,70.924,47.154\H,-1,148.752,70.615,48.485\
 C,-1,141.851,74.194,48.77\O,-1,141.629,75.321,48.273\O,-1,141.116,73.2
 17,48.478\Ca,0,117.016442,83.649052,56.972102\C,0,117.249334,84.826229
 ,63.046277\C,0,117.402368,83.608748,62.387881\H,0,118.361285,83.287503
 ,61.976141\H,0,118.104623,85.479597,63.178417\C,0,115.997235,85.235829
 ,63.500033\H,0,115.836532,86.203154,63.960199\C,0,114.920612,84.38718,
 63.291831\N,0,113.57342,84.824828,63.679282\O,0,113.478065,85.797071,6
 4.397547\O,0,112.631309,84.187817,63.242507\C,0,115.043717,83.157188,6
 2.665924\H,0,114.166295,82.542626,62.515977\C,0,116.295832,82.769924,6
 2.206504\C,0,116.425134,81.561101,61.352475\N,0,116.503733,81.882233,5
 9.990231\C,0,116.999684,81.041939,59.048296\O,0,117.2932,81.465177,57.
 906927\H,0,116.386811,82.861854,59.728274\C,0,116.457256,80.284271,61.
 72349\H,0,116.408905,80.001409,62.767045\C,0,116.579948,79.219574,60.6
 72035\H,0,117.241288,78.419038,61.015169\H,0,115.607815,78.754581,60.4
 38678\N,0,117.163851,79.752044,59.427346\C,0,117.618904,78.77988,58.48
 4816\C,0,118.85439,78.166394,58.668265\H,0,119.487733,78.500068,59.484
 913\C,0,119.297646,77.190997,57.779742\H,0,120.277912,76.749403,57.914
 332\C,0,118.486647,76.836662,56.704614\H,0,118.827384,76.095344,55.987
 302\C,0,117.244359,77.435104,56.519484\H,0,116.605113,77.168938,55.682
 799\C,0,116.791527,78.407042,57.414786\O,0,115.586568,79.00553,57.2986
 36\H,0,115.166895,78.714832,56.46518\O,0,113.270629,83.510015,54.15894
 5\H,0,112.865342,84.276293,53.693257\H,0,114.183893,83.500467,53.79124
 8\O,0,111.822561,81.967436,52.385626\H,0,111.940198,82.534837,51.60698
 4\H,0,112.329128,82.457085,53.051722\O,0,119.612371,82.424123,60.82694
 \H,0,120.527817,82.734749,60.892456\H,0,119.278601,82.908858,60.036799
 \O,-1,114.446,77.935,55.032\H,-1,113.494,77.939,54.938\H,-1,114.764,77
 .523,54.229\O,-1,115.093,83.823,50.684\H,-1,115.141,83.284,51.474\H,-1
 ,114.197,84.16,50.679\O,-1,119.945,82.62,51.064\H,-1,119.579,82.352,50
 .221\H,-1,120.511,81.892,51.321\\Version=ES64L-G16RevA.03\HF=-181.5163
 868\S2=0.\S2-1=0.\S2A=0.\RMSD=6.083e-09\Dipole=207.6572109,-459.444773
 5,-36.0691224\Quadrupole=158807.5639621,-100424.4321781,-58383.131784,
 80831.7732234,109559.5017507,18243.9828871\PG=Unknown\\@


 THESE ARE THE TIMES THAT TRY MENS SOULS.
 THE SUMMER SOLDIER AND THE SUNSHINE PATRIOT WILL IN THIS CRISIS,
 SHRINK FROM THE SERVICE OF HIS COUNTRY.  BUT HE THAT STANDS NOW,
 DESERVES THE LOVE AND THANKS OF MAN AND WOMAN.
 TYRANNY, LIKE HELL, IS NOT EASILY CONQUERED,
 YET WE HAVE THIS CONSOLATION WITH US,
 THAT THE HARDER THE CONFLICT, THE MORE GLORIOUS THE TRIUMPH.
 WHAT WE OBTAIN TOO CHEAP, WE ESTEEM TOO LIGHTLY, 
 'TIS DEARNESS ONLY THAT GIVES EVERYTHING ITS VALUE.

                                              -- TOM PAINE
 Job cpu time:       0 days  1 hours 39 minutes 54.7 seconds.
 Elapsed time:       0 days  0 hours 10 minutes  0.1 seconds.
 File lengths (MBytes):  RWF=   2439 Int=      0 D2E=      0 Chk=    200 Scr=      1
 Normal termination of Gaussian 16 at Mon Apr 14 15:56:28 2025.
