 Entering Gaussian System, Link 0=g16
 Input=nbo_ici.gjf
 Output=nbo_ici.log
 Initial command:
 /opt/g16/l1.exe "/media/jsolorza/Sera/TAO/Nueva_Chain_A/ICI/NBO/Gau-336516.inp" -scrdir="/media/jsolorza/Sera/TAO/Nueva_Chain_A/ICI/NBO/"
 Entering Link 1 = /opt/g16/l1.exe PID=    336521.
  
 Copyright (c) 1988,1990,1992,1993,1995,1998,2003,2009,2016,
            Gaussian, Inc.  All Rights Reserved.
  
 This is part of the Gaussian(R) 16 program.  It is based on
 the Gaussian(R) 09 system (copyright 2009, Gaussian, Inc.),
 the Gaussian(R) 03 system (copyright 2003, Gaussian, Inc.),
 the Gaussian(R) 98 system (copyright 1998, Gaussian, Inc.),
 the Gaussian(R) 94 system (copyright 1995, Gaussian, Inc.),
 the Gaussian 92(TM) system (copyright 1992, Gaussian, Inc.),
 the Gaussian 90(TM) system (copyright 1990, Gaussian, Inc.),
 the Gaussian 88(TM) system (copyright 1988, Gaussian, Inc.),
 the Gaussian 86(TM) system (copyright 1986, Carnegie Mellon
 University), and the Gaussian 82(TM) system (copyright 1983,
 Carnegie Mellon University). Gaussian is a federally registered
 trademark of Gaussian, Inc.
  
 This software contains proprietary and confidential information,
 including trade secrets, belonging to Gaussian, Inc.
  
 This software is provided under written license and may be
 used, copied, transmitted, or stored only in accord with that
 written license.
  
 The following legend is applicable only to US Government
 contracts under FAR:
  
                    RESTRICTED RIGHTS LEGEND
  
 Use, reproduction and disclosure by the US Government is
 subject to restrictions as set forth in subparagraphs (a)
 and (c) of the Commercial Computer Software - Restricted
 Rights clause in FAR 52.227-19.
  
 Gaussian, Inc.
 340 Quinnipiac St., Bldg. 40, Wallingford CT 06492
  
  
 ---------------------------------------------------------------
 Warning -- This program may not be used in any manner that
 competes with the business of Gaussian, Inc. or will provide
 assistance to any competitor of Gaussian, Inc.  The licensee
 of this program is prohibited from giving any competitor of
 Gaussian, Inc. access to this program.  By using this program,
 the user acknowledges that Gaussian, Inc. is engaged in the
 business of creating and licensing software in the field of
 computational chemistry and represents and warrants to the
 licensee that it is not a competitor of Gaussian, Inc. and that
 it will not use this program in any manner prohibited above.
 ---------------------------------------------------------------
  

 Cite this work as:
 Gaussian 16, Revision A.03,
 M. J. Frisch, G. W. Trucks, H. B. Schlegel, G. E. Scuseria, 
 M. A. Robb, J. R. Cheeseman, G. Scalmani, V. Barone, 
 G. A. Petersson, H. Nakatsuji, X. Li, M. Caricato, A. V. Marenich, 
 J. Bloino, B. G. Janesko, R. Gomperts, B. Mennucci, H. P. Hratchian, 
 J. V. Ortiz, A. F. Izmaylov, J. L. Sonnenberg, D. Williams-Young, 
 F. Ding, F. Lipparini, F. Egidi, J. Goings, B. Peng, A. Petrone, 
 T. Henderson, D. Ranasinghe, V. G. Zakrzewski, J. Gao, N. Rega, 
 G. Zheng, W. Liang, M. Hada, M. Ehara, K. Toyota, R. Fukuda, 
 J. Hasegawa, M. Ishida, T. Nakajima, Y. Honda, O. Kitao, H. Nakai, 
 T. Vreven, K. Throssell, J. A. Montgomery, Jr., J. E. Peralta, 
 F. Ogliaro, M. J. Bearpark, J. J. Heyd, E. N. Brothers, K. N. Kudin, 
 V. N. Staroverov, T. A. Keith, R. Kobayashi, J. Normand, 
 K. Raghavachari, A. P. Rendell, J. C. Burant, S. S. Iyengar, 
 J. Tomasi, M. Cossi, J. M. Millam, M. Klene, C. Adamo, R. Cammi, 
 J. W. Ochterski, R. L. Martin, K. Morokuma, O. Farkas, 
 J. B. Foresman, and D. J. Fox, Gaussian, Inc., Wallingford CT, 2016.
 
 ******************************************
 Gaussian 16:  ES64L-G16RevA.03 25-Dec-2016
                16-May-2025 
 ******************************************
 %nprocs=10
 Will use up to   10 processors via shared memory.
 %mem=2GB
 %chk=ca.chk
 -----------------------------------
 #p m062x/cc-pvtz pop=nboread Nosymm
 -----------------------------------
 1/38=1,172=1/1;
 2/12=2,15=1,17=6,18=5,40=1/2;
 3/5=16,6=1,11=2,25=1,30=1,74=-55/1,2,3;
 4//1;
 5/5=2,38=5/2;
 6/7=2,8=2,9=2,10=2,28=1,40=2/1,7;
 99/5=1,9=1/99;
 Leave Link    1 at Fri May 16 09:52:02 2025, MaxMem=   268435456 cpu:               2.9 elap:               0.3
 (Enter /opt/g16/l101.exe)
 --
 sp
 --
 Symbolic Z-matrix:
 Charge =  2 Multiplicity = 1
 Ca                    0.        0.        0. 
 C                     0.23289   1.17718   6.07418 
 C                     0.38593  -0.0403    5.41578 
 H                     1.34484  -0.36155   5.00404 
 H                     1.08818   1.83055   6.20632 
 C                    -1.01921   1.58678   6.52793 
 H                    -1.17991   2.5541    6.9881 
 C                    -2.09583   0.73813   6.31973 
 N                    -3.44302   1.17578   6.70718 
 O                    -3.53838   2.14802   7.42544 
 O                    -4.38513   0.53877   6.27041 
 C                    -1.97273  -0.49186   5.69382 
 H                    -2.85015  -1.10643   5.54387 
 C                    -0.72061  -0.87913   5.2344 
 C                    -0.59131  -2.08795   4.38037 
 N                    -0.51271  -1.76682   3.01813 
 C                    -0.01676  -2.60711   2.07619 
 O                     0.27676  -2.18388   0.93483 
 H                    -0.62963  -0.7872    2.75617 
 C                    -0.55919  -3.36478   4.75139 
 H                    -0.60754  -3.64764   5.79494 
 C                    -0.43649  -4.42948   3.69993 
 H                     0.22485  -5.23001   4.04307 
 H                    -1.40863  -4.89447   3.46658 
 N                     0.14741  -3.89701   2.45524 
 C                     0.60246  -4.86917   1.51271 
 C                     1.83795  -5.48266   1.69616 
 H                     2.47129  -5.14898   2.51281 
 C                     2.2812   -6.45805   0.80764 
 H                     3.26147  -6.89965   0.94223 
 C                     1.47021  -6.81239  -0.26749 
 H                     1.81094  -7.55371  -0.9848 
 C                     0.22792  -6.21395  -0.45262 
 H                    -0.41133  -6.48011  -1.2893 
 C                    -0.22492  -5.24201   0.44268 
 O                    -1.42987  -4.64352   0.32653 
 H                    -1.84955  -4.93422  -0.50692 
 
 ITRead=  0  0  0  0  0  0  0  0  0  0  0  0  0  0  0  0  0  0  0  0
 ITRead=  0  0  0  0  0  0  0  0  0  0  0  0  0  0  0  0  0
 MicOpt= -1 -1 -1 -1 -1 -1 -1 -1 -1 -1 -1 -1 -1 -1 -1 -1 -1 -1 -1 -1
 MicOpt= -1 -1 -1 -1 -1 -1 -1 -1 -1 -1 -1 -1 -1 -1 -1 -1 -1
 NAtoms=     37 NQM=       37 NQMF=       0 NMMI=      0 NMMIF=      0
                NMic=       0 NMicF=      0.
                    Isotopes and Nuclear Properties:
 (Nuclear quadrupole moments (NQMom) in fm**2, nuclear magnetic moments (NMagM)
  in nuclear magnetons)

  Atom         1           2           3           4           5           6           7           8           9          10
 IAtWgt=          40          12          12           1           1          12           1          12          14          16
 AtmWgt=  39.9625907  12.0000000  12.0000000   1.0078250   1.0078250  12.0000000   1.0078250  12.0000000  14.0030740  15.9949146
 NucSpn=           0           0           0           1           1           0           1           0           2           0
 AtZEff=  -0.0000000  -0.0000000  -0.0000000  -0.0000000  -0.0000000  -0.0000000  -0.0000000  -0.0000000  -0.0000000  -0.0000000
 NQMom=    0.0000000   0.0000000   0.0000000   0.0000000   0.0000000   0.0000000   0.0000000   0.0000000   2.0440000   0.0000000
 NMagM=    0.0000000   0.0000000   0.0000000   2.7928460   2.7928460   0.0000000   2.7928460   0.0000000   0.4037610   0.0000000
 AtZNuc=  20.0000000   6.0000000   6.0000000   1.0000000   1.0000000   6.0000000   1.0000000   6.0000000   7.0000000   8.0000000

  Atom        11          12          13          14          15          16          17          18          19          20
 IAtWgt=          16          12           1          12          12          14          12          16           1          12
 AtmWgt=  15.9949146  12.0000000   1.0078250  12.0000000  12.0000000  14.0030740  12.0000000  15.9949146   1.0078250  12.0000000
 NucSpn=           0           0           1           0           0           2           0           0           1           0
 AtZEff=  -0.0000000  -0.0000000  -0.0000000  -0.0000000  -0.0000000  -0.0000000  -0.0000000  -0.0000000  -0.0000000  -0.0000000
 NQMom=    0.0000000   0.0000000   0.0000000   0.0000000   0.0000000   2.0440000   0.0000000   0.0000000   0.0000000   0.0000000
 NMagM=    0.0000000   0.0000000   2.7928460   0.0000000   0.0000000   0.4037610   0.0000000   0.0000000   2.7928460   0.0000000
 AtZNuc=   8.0000000   6.0000000   1.0000000   6.0000000   6.0000000   7.0000000   6.0000000   8.0000000   1.0000000   6.0000000

  Atom        21          22          23          24          25          26          27          28          29          30
 IAtWgt=           1          12           1           1          14          12          12           1          12           1
 AtmWgt=   1.0078250  12.0000000   1.0078250   1.0078250  14.0030740  12.0000000  12.0000000   1.0078250  12.0000000   1.0078250
 NucSpn=           1           0           1           1           2           0           0           1           0           1
 AtZEff=  -0.0000000  -0.0000000  -0.0000000  -0.0000000  -0.0000000  -0.0000000  -0.0000000  -0.0000000  -0.0000000  -0.0000000
 NQMom=    0.0000000   0.0000000   0.0000000   0.0000000   2.0440000   0.0000000   0.0000000   0.0000000   0.0000000   0.0000000
 NMagM=    2.7928460   0.0000000   2.7928460   2.7928460   0.4037610   0.0000000   0.0000000   2.7928460   0.0000000   2.7928460
 AtZNuc=   1.0000000   6.0000000   1.0000000   1.0000000   7.0000000   6.0000000   6.0000000   1.0000000   6.0000000   1.0000000

  Atom        31          32          33          34          35          36          37
 IAtWgt=          12           1          12           1          12          16           1
 AtmWgt=  12.0000000   1.0078250  12.0000000   1.0078250  12.0000000  15.9949146   1.0078250
 NucSpn=           0           1           0           1           0           0           1
 AtZEff=  -0.0000000  -0.0000000  -0.0000000  -0.0000000  -0.0000000  -0.0000000  -0.0000000
 NQMom=    0.0000000   0.0000000   0.0000000   0.0000000   0.0000000   0.0000000   0.0000000
 NMagM=    0.0000000   2.7928460   0.0000000   2.7928460   0.0000000   0.0000000   2.7928460
 AtZNuc=   6.0000000   1.0000000   6.0000000   1.0000000   6.0000000   8.0000000   1.0000000
 Leave Link  101 at Fri May 16 09:52:02 2025, MaxMem=   268435456 cpu:               0.7 elap:               0.1
 (Enter /opt/g16/l202.exe)
                          Input orientation:                          
 ---------------------------------------------------------------------
 Center     Atomic      Atomic             Coordinates (Angstroms)
 Number     Number       Type             X           Y           Z
 ---------------------------------------------------------------------
      1         20           0        0.000000    0.000000    0.000000
      2          6           0        0.232892    1.177177    6.074175
      3          6           0        0.385926   -0.040304    5.415779
      4          1           0        1.344843   -0.361549    5.004039
      5          1           0        1.088181    1.830545    6.206315
      6          6           0       -1.019207    1.586777    6.527931
      7          1           0       -1.179910    2.554102    6.988097
      8          6           0       -2.095830    0.738128    6.319729
      9          7           0       -3.443022    1.175776    6.707180
     10          8           0       -3.538377    2.148019    7.425445
     11          8           0       -4.385133    0.538765    6.270405
     12          6           0       -1.972725   -0.491864    5.693822
     13          1           0       -2.850147   -1.106426    5.543875
     14          6           0       -0.720610   -0.879128    5.234402
     15          6           0       -0.591308   -2.087951    4.380373
     16          7           0       -0.512709   -1.766819    3.018129
     17          6           0       -0.016758   -2.607113    2.076194
     18          8           0        0.276758   -2.183875    0.934825
     19          1           0       -0.629631   -0.787198    2.756172
     20          6           0       -0.559186   -3.364781    4.751388
     21          1           0       -0.607537   -3.647643    5.794943
     22          6           0       -0.436494   -4.429478    3.699933
     23          1           0        0.224846   -5.230014    4.043067
     24          1           0       -1.408627   -4.894471    3.466576
     25          7           0        0.147409   -3.897008    2.455244
     26          6           0        0.602462   -4.869172    1.512714
     27          6           0        1.837948   -5.482658    1.696163
     28          1           0        2.471291   -5.148984    2.512811
     29          6           0        2.281204   -6.458055    0.807640
     30          1           0        3.261470   -6.899649    0.942230
     31          6           0        1.470205   -6.812390   -0.267488
     32          1           0        1.810942   -7.553708   -0.984800
     33          6           0        0.227917   -6.213948   -0.452618
     34          1           0       -0.411329   -6.480114   -1.289303
     35          6           0       -0.224915   -5.242010    0.442684
     36          8           0       -1.429874   -4.643522    0.326534
     37          1           0       -1.849547   -4.934220   -0.506922
 ---------------------------------------------------------------------
                    Distance matrix (angstroms):
                    1          2          3          4          5
     1  Ca   0.000000
     2  C    6.191574   0.000000
     3  C    5.429662   1.392539   0.000000
     4  H    5.194201   2.179290   1.091902   0.000000
     5  H    6.561507   1.084375   2.148996   2.513288   0.000000
     6  C    6.794890   1.393348   2.420470   3.421543   2.145680
     7  H    7.533201   2.174209   3.413937   4.337267   2.505784
     8  C    6.698978   2.382437   2.753579   3.844289   3.368110
     9  N    7.630407   3.730019   4.219883   5.309210   4.605582
    10  O    8.501255   4.122006   4.922161   6.000581   4.795009
    11  O    7.670570   4.666072   4.881466   5.936908   5.624053
    12  C    6.045923   2.791973   2.417529   3.391023   3.876258
    13  H    6.331040   3.873137   3.409574   4.294672   4.957323
    14  C    5.356408   2.417183   1.400338   2.141740   3.399804
    15  C    4.888441   3.769527   2.493975   2.667977   4.637818
    16  N    3.534632   4.308416   3.088224   3.060902   5.066400
    17  C    3.332852   5.510629   4.231252   3.933038   6.162110
    18  O    2.391611   6.140970   4.968477   4.584777   6.675521
    19  H    2.934723   3.951185   2.943249   3.022024   4.659071
    20  C    5.848942   4.796513   3.519489   3.564907   5.641103
    21  H    6.874283   4.905423   3.760802   3.903297   5.749368
    22  C    5.787945   6.125331   4.783864   4.628380   6.913355
    23  H    6.614378   6.721426   5.370603   5.087220   7.434816
    24  H    6.160944   6.808749   5.530167   5.522026   7.678936
    25  N    4.608321   6.233083   4.867836   4.519920   6.910894
    26  C    5.134209   7.582997   6.212791   5.749708   8.194634
    27  C    6.026156   8.129981   6.750047   6.116449   8.624764
    28  H    6.239674   7.596977   6.234948   5.513133   8.016782
    29  C    6.896568   9.498881   8.124934   7.460156   9.963427
    30  H    7.689612  10.037144   8.679401   7.932118  10.423534
    31  C    6.974361  10.275252   8.907095   8.331750  10.805387
    32  H    7.829933  11.337889   9.972428   9.370731  11.844776
    33  C    6.234578   9.860415   8.519209   8.079183  10.478326
    34  H    6.619922  10.642835   9.330857   8.951376  11.291584
    35  C    5.265475   8.551564   7.222364   6.862142   9.217630
    36  O    4.869647   8.347497   7.098391   6.921951   9.100877
    37  H    5.293800   9.219358   8.001634   7.841182   9.972956
                    6          7          8          9         10
     6  C    0.000000
     7  H    1.083188   0.000000
     8  C    1.386604   2.140885   0.000000
     9  N    2.464940   2.664652   1.468530   0.000000
    10  O    2.732534   2.432806   2.300292   1.212540   0.000000
    11  O    3.534700   3.853585   2.298497   1.218248   2.154254
    12  C    2.434273   3.403177   1.385567   2.443295   3.524027
    13  H    3.402066   4.274919   2.138533   2.629301   3.821698
    14  C    2.800547   3.882457   2.384257   3.715270   4.680182
    15  C    4.277701   5.356802   3.743182   4.919168   5.991754
    16  N    4.880764   5.905604   4.436394   5.554700   6.626089
    17  C    6.197708   7.219270   5.789712   6.891703   7.976689
    18  O    6.868783   7.823836   6.569967   7.644874   8.686122
    19  H    4.473667   5.419989   4.144309   5.232485   6.235256
    20  C    5.280687   6.357778   4.653475   5.723486   6.813011
    21  H    5.301499   6.341362   4.661052   5.668997   6.696123
    22  C    6.673264   7.754681   6.026681   7.035739   8.170960
    23  H    7.361444   8.440320   6.796135   7.847605   8.946379
    24  H    7.178448   8.242249   6.351291   7.175526   8.354947
    25  N    6.929623   7.995333   6.438234   7.530159   8.650449
    26  C    8.334356   9.394768   7.863205   8.938110  10.067170
    27  C    9.026972  10.084718   8.691959   9.865783  10.952478
    28  H    8.583428   9.627927   8.367156   9.621560  10.653466
    29  C   10.408351  11.462824  10.066112  11.218142  12.317767
    30  H   11.024685  12.068628  10.768184  11.974863  13.043400
    31  C   11.086970  12.140749  10.635711  11.687454  12.827940
    32  H   12.165498  13.216660  11.720647  12.766150  13.909383
    33  C   10.542044  11.585548   9.979772  10.924583  12.090134
    34  H   11.249595  12.276935  10.622520  11.478134  12.655826
    35  C    9.181147  10.224178   8.590811   9.528279  10.693480
    36  O    8.800148   9.810438   8.082329   8.867335  10.048152
    37  H    9.628189  10.615964   8.879153   9.587204  10.767205
                   11         12         13         14         15
    11  O    0.000000
    12  C    2.685955   0.000000
    13  H    2.364462   1.081684   0.000000
    14  C    4.063552   1.388824   2.163877   0.000000
    15  C    4.986478   2.486153   2.723873   1.485711   0.000000
    16  N    5.557759   3.304011   3.504159   2.396473   1.401789
    17  C    6.824270   4.624642   4.722813   3.668190   2.430818
    18  O    7.590416   5.529116   5.672898   4.602550   3.554510
    19  H    5.311479   3.243595   3.578252   2.481603   2.081215
    20  C    5.673002   3.337653   3.313111   2.537288   1.330030
    21  H    5.658826   3.439899   3.398547   2.826954   2.105685
    22  C    6.847081   4.673372   4.502057   3.878183   2.443300
    23  H    7.713090   5.477625   5.358357   4.609054   3.263808
    24  H    6.800081   4.966063   4.554386   4.440896   3.062612
    25  N    7.401045   5.155421   5.129555   4.193421   2.743084
    26  C    8.761136   6.578304   6.506076   5.614440   4.169382
    27  C    9.793261   7.443825   7.478939   6.344907   4.962893
    28  H    9.668534   7.180312   7.338074   5.985563   4.715636
    29  C   11.101231   8.807163   8.797876   7.728618   6.333526
    30  H   11.924344   9.541181   9.596272   8.397998   7.058127
    31  C   11.448516   9.345589   9.219295   8.382963   6.940661
    32  H   12.510694  10.430233  10.291588   9.467695   8.026854
    33  C   10.586709   8.681232   8.456902   7.855075   6.407245
    34  H   11.054635   9.330655   9.028659   8.603803   7.174170
    35  C    9.202560   7.293365   7.072273   6.499309   5.058431
    36  O    8.421357   6.807256   6.461337   6.225824   4.864951
    37  H    9.072757   7.628822   7.229478   7.119064   5.793968
                   16         17         18         19         20
    16  N    0.000000
    17  C    1.356209   0.000000
    18  O    2.266572   1.252200   0.000000
    19  H    1.020759   2.037173   2.467702   0.000000
    20  C    2.357929   2.832835   4.081604   3.260335   0.000000
    21  H    3.355173   3.906510   5.152217   4.173340   1.082292
    22  C    2.749621   2.476635   3.632807   3.767518   1.501396
    23  H    3.686218   3.287335   4.352336   4.703705   2.143716
    24  H    3.284202   3.017030   4.074017   4.240425   2.170770
    25  N    2.300065   1.354422   2.294173   3.219513   2.460654
    26  C    3.624152   2.412023   2.766019   4.441481   3.755213
    27  C    4.591366   3.442836   3.728125   5.409243   4.423353
    28  H    4.538573   3.583592   4.012217   5.357249   4.168741
    29  C    5.890663   4.660431   4.722562   6.665460   5.761016
    30  H    6.700726   5.518924   5.580957   7.469479   6.449991
    31  C    6.339165   5.038676   4.928795   7.060791   6.418220
    32  H    7.410188   6.097456   5.905403   8.107831   7.487888
    33  C    5.689602   4.411804   4.262496   6.362495   5.984894
    34  H    6.385875   5.146105   4.886500   6.987333   6.798317
    35  C    4.335054   3.107148   3.137845   5.036008   4.711757
    36  O    4.044910   3.034002   3.054910   4.627609   4.687495
    37  H    4.923977   3.930271   3.763536   5.416066   5.637197
                   21         22         23         24         25
    21  H    0.000000
    22  C    2.242674   0.000000
    23  H    2.503164   1.093604   0.000000
    24  H    2.760003   1.102595   1.764416   0.000000
    25  N    3.433033   1.474353   2.074628   2.106887   0.000000
    26  C    4.614511   2.461034   2.583696   2.804050   1.428474
    27  C    5.113480   3.208951   2.859001   3.744406   2.438937
    28  H    4.744006   3.222136   2.719332   4.003524   2.640300
    29  C    6.412210   4.457170   4.025504   4.809323   3.718419
    30  H    7.006681   5.232744   4.650157   5.674757   4.582842
    31  C    7.147426   5.005417   4.757701   5.090120   4.202679
    32  H    8.189707   6.062879   5.761484   6.103435   5.288922
    33  C    6.805580   4.568310   4.602099   4.447401   3.718918
    34  H    7.632033   5.394276   5.513768   5.111482   4.583258
    35  C    5.597775   3.363725   3.628386   3.265866   2.449092
    36  O    5.618853   3.523129   4.110315   3.150125   2.752546
    37  H    6.550677   4.466443   5.009291   3.998084   3.719956
                   26         27         28         29         30
    26  C    0.000000
    27  C    1.391562   0.000000
    28  H    2.137992   1.085991   0.000000
    29  C    2.416579   1.391887   2.158103   0.000000
    30  H    3.393908   2.145389   2.481116   1.083532   0.000000
    31  C    2.774562   2.399864   3.391040   1.392542   2.163253
    32  H    3.860665   3.387852   4.295584   2.152776   2.499054
    33  C    2.410651   2.782848   3.867899   2.421534   3.408553
    34  H    3.387360   3.868743   4.953532   3.412827   4.318009
    35  C    1.403041   2.425804   3.400530   2.809376   3.892582
    36  O    2.363965   3.641249   4.500487   4.158857   5.241937
    37  H    3.177343   4.330356   5.275846   4.594916   5.664402
                   31         32         33         34         35
    31  C    0.000000
    32  H    1.086366   0.000000
    33  C    1.391289   2.141061   0.000000
    34  H    2.166722   2.486728   1.086058   0.000000
    35  C    2.417410   3.395051   1.396884   2.137155   0.000000
    36  O    3.669783   4.548809   2.412796   2.649799   1.350409
    37  H    3.821728   4.526507   2.440596   2.251750   1.906808
                   36         37
    36  O    0.000000
    37  H    0.977384   0.000000
 Symmetry turned off by external request.
 Stoichiometry    C16H13CaN3O4(2+)
 Framework group  C1[X(C16H13CaN3O4)]
 Deg. of freedom   105
 Full point group                 C1      NOp   1
 Rotational constants (GHZ):           0.4111057           0.0974954           0.0903006
 Leave Link  202 at Fri May 16 09:52:02 2025, MaxMem=   268435456 cpu:               0.0 elap:               0.0
 (Enter /opt/g16/l301.exe)
 Standard basis: CC-pVTZ (5D, 7F)
 Ernie: Thresh=  0.10000D-02 Tol=  0.10000D-05 Strict=F.
 Ernie:  102 primitive shells out of 821 were deleted.
   915 basis functions,  1602 primitive gaussians,  1049 cartesian basis functions
    90 alpha electrons       90 beta electrons
       nuclear repulsion energy      2113.9410773975 Hartrees.
 IExCor= 4336 DFT=T Ex+Corr=M062X ExCW=0 ScaHFX=  0.540000
 ScaDFX=  1.000000  1.000000  1.000000  1.000000 ScalE2=  1.000000  1.000000
 IRadAn=      5 IRanWt=     -1 IRanGd=            0 ICorTp=0 IEmpDi=  4
 NAtoms=   37 NActive=   37 NUniq=   37 SFac= 1.00D+00 NAtFMM=   60 NAOKFM=F Big=F
 Integral buffers will be    131072 words long.
 Raffenetti 2 integral format.
 Two-electron integral symmetry is turned off.
 Leave Link  301 at Fri May 16 09:52:02 2025, MaxMem=   268435456 cpu:               0.2 elap:               0.0
 (Enter /opt/g16/l302.exe)
 NPDir=0 NMtPBC=     1 NCelOv=     1 NCel=       1 NClECP=     1 NCelD=      1
         NCelK=      1 NCelE2=     1 NClLst=     1 CellRange=     0.0.
 One-electron integrals computed using PRISM.
 NBasis=   915 RedAO= T EigKep=  3.21D-05  NBF=   915
 NBsUse=   915 1.00D-06 EigRej= -1.00D+00 NBFU=   915
 Precomputing XC quadrature grid using
 IXCGrd= 4 IRadAn=           5 IRanWt=          -1 IRanGd=           0 AccXCQ= 0.00D+00.
 Generated NRdTot=       0 NPtTot=           0 NUsed=           0 NTot=          32
 NSgBfM=  1019  1019  1019  1019  1019 MxSgAt=    37 MxSgA2=    37.
 Leave Link  302 at Fri May 16 09:52:03 2025, MaxMem=   268435456 cpu:              11.7 elap:               1.2
 (Enter /opt/g16/l303.exe)
 DipDrv:  MaxL=1.
 Leave Link  303 at Fri May 16 09:52:03 2025, MaxMem=   268435456 cpu:               0.7 elap:               0.1
 (Enter /opt/g16/l401.exe)
 ExpMin= 2.14D-02 ExpMax= 2.40D+06 ExpMxC= 2.73D+03 IAcc=3 IRadAn=         5 AccDes= 0.00D+00
 Harris functional with IExCor= 1009 and IRadAn=       5 diagonalized for initial guess.
 HarFok:  IExCor= 1009 AccDes= 0.00D+00 IRadAn=         5 IDoV= 1 UseB2=F ITyADJ=14
 ICtDFT=  3500011 ScaDFX=  1.000000  1.000000  1.000000  1.000000
 FoFCou: FMM=F IPFlag=           0 FMFlag=      100000 FMFlg1=           0
         NFxFlg=           0 DoJE=T BraDBF=F KetDBF=T FulRan=T
         wScrn=  0.000000 ICntrl=       500 IOpCl=  0 I1Cent=   200000004 NGrid=           0
         NMat0=    1 NMatS0=      1 NMatT0=    0 NMatD0=    1 NMtDS0=    0 NMtDT0=    0
 Symmetry not used in FoFCou.
 Harris En= -1758.92372037859    
 JPrj=0 DoOrth=F DoCkMO=F.
 Leave Link  401 at Fri May 16 09:52:06 2025, MaxMem=   268435456 cpu:              31.1 elap:               3.1
 (Enter /opt/g16/l502.exe)
 Two-electron integral symmetry not used.
 Closed shell SCF:
 Using DIIS extrapolation, IDIIS=  1040.
 NGot=   268435456 LenX=   266217600 LenY=   265116150
 Requested convergence on RMS density matrix=1.00D-08 within 128 cycles.
 Requested convergence on MAX density matrix=1.00D-06.
 Requested convergence on             energy=1.00D-06.
 No special actions if energy rises.
 Fock matrices will be formed incrementally for  20 cycles.

 Cycle   1  Pass 1  IDiag  1:
 FoFJK:  IHMeth= 1 ICntrl=       0 DoSepK=F KAlg= 0 I1Cent=           0 FoldK=F
 IRaf= 720000000 NMat=       1 IRICut=       1 DoRegI=T DoRafI=F ISym2E= 0 IDoP0=0 IntGTp=1.
 FoFCou: FMM=F IPFlag=           0 FMFlag=      100000 FMFlg1=           0
         NFxFlg=           0 DoJE=F BraDBF=F KetDBF=F FulRan=T
         wScrn=  0.000000 ICntrl=         0 IOpCl=  0 I1Cent=           0 NGrid=           0
         NMat0=    1 NMatS0=      1 NMatT0=    0 NMatD0=    1 NMtDS0=    0 NMtDT0=    0
 Symmetry not used in FoFCou.
 E= -1758.97571372173    
 DIIS: error= 3.32D-02 at cycle   1 NSaved=   1.
 NSaved= 1 IEnMin= 1 EnMin= -1758.97571372173     IErMin= 1 ErrMin= 3.32D-02
 ErrMax= 3.32D-02  0.00D+00 EMaxC= 1.00D-01 BMatC= 9.09D-01 BMatP= 9.09D-01
 IDIUse=3 WtCom= 6.68D-01 WtEn= 3.32D-01
 Coeff-Com:  0.100D+01
 Coeff-En:   0.100D+01
 Coeff:      0.100D+01
 Gap=     0.275 Goal=   None    Shift=    0.000
 GapD=    0.275 DampG=1.000 DampE=0.500 DampFc=0.5000 IDamp=-1.
 Damping current iteration by 5.00D-01
 RMSDP=2.10D-03 MaxDP=4.58D-01              OVMax= 9.97D-01

 Cycle   2  Pass 1  IDiag  1:
 RMSU=  1.05D-03    CP:  1.00D+00
 E= -1758.30740783604     Delta-E=        0.668305885687 Rises=F Damp=T
 DIIS: error= 1.11D-02 at cycle   2 NSaved=   2.
 NSaved= 2 IEnMin= 1 EnMin= -1758.97571372173     IErMin= 2 ErrMin= 1.11D-02
 ErrMax= 1.11D-02  0.00D+00 EMaxC= 1.00D-01 BMatC= 2.56D-01 BMatP= 9.09D-01
 IDIUse=3 WtCom= 8.89D-01 WtEn= 1.11D-01
 Coeff-Com:  0.238D+00 0.762D+00
 Coeff-En:   0.738D+00 0.262D+00
 Coeff:      0.294D+00 0.706D+00
 Gap=     0.068 Goal=   None    Shift=    0.000
 RMSDP=1.13D-03 MaxDP=2.29D-01 DE= 6.68D-01 OVMax= 8.33D-01

 Cycle   3  Pass 1  IDiag  1:
 RMSU=  9.50D-04    CP:  1.00D+00  4.23D-01
 E= -1759.35735118231     Delta-E=       -1.049943346267 Rises=F Damp=F
 DIIS: error= 1.29D-02 at cycle   3 NSaved=   3.
 NSaved= 3 IEnMin= 3 EnMin= -1759.35735118231     IErMin= 2 ErrMin= 1.11D-02
 ErrMax= 1.29D-02  0.00D+00 EMaxC= 1.00D-01 BMatC= 2.15D-01 BMatP= 2.56D-01
 IDIUse=3 WtCom= 8.71D-01 WtEn= 1.29D-01
 Coeff-Com:  0.561D-01 0.451D+00 0.493D+00
 Coeff-En:   0.000D+00 0.982D-01 0.902D+00
 Coeff:      0.488D-01 0.406D+00 0.545D+00
 Gap=     0.296 Goal=   None    Shift=    0.000
 RMSDP=5.75D-04 MaxDP=6.39D-02 DE=-1.05D+00 OVMax= 7.85D-02

 Cycle   4  Pass 1  IDiag  1:
 RMSU=  4.19D-04    CP:  1.01D+00  4.94D-01  5.96D-01
 E= -1759.58027119412     Delta-E=       -0.222920011812 Rises=F Damp=F
 DIIS: error= 5.65D-03 at cycle   4 NSaved=   4.
 NSaved= 4 IEnMin= 4 EnMin= -1759.58027119412     IErMin= 4 ErrMin= 5.65D-03
 ErrMax= 5.65D-03  0.00D+00 EMaxC= 1.00D-01 BMatC= 3.54D-02 BMatP= 2.15D-01
 IDIUse=3 WtCom= 9.44D-01 WtEn= 5.65D-02
 Coeff-Com: -0.728D-01 0.235D+00 0.137D+00 0.701D+00
 Coeff-En:   0.000D+00 0.000D+00 0.000D+00 0.100D+01
 Coeff:     -0.687D-01 0.221D+00 0.130D+00 0.718D+00
 Gap=     0.148 Goal=   None    Shift=    0.000
 RMSDP=1.84D-04 MaxDP=2.17D-02 DE=-2.23D-01 OVMax= 2.40D-02

 Cycle   5  Pass 1  IDiag  1:
 RMSU=  1.66D-04    CP:  1.01D+00  5.60D-01  5.69D-01  1.07D+00
 E= -1759.60340113929     Delta-E=       -0.023129945170 Rises=F Damp=F
 DIIS: error= 3.01D-03 at cycle   5 NSaved=   5.
 NSaved= 5 IEnMin= 5 EnMin= -1759.60340113929     IErMin= 5 ErrMin= 3.01D-03
 ErrMax= 3.01D-03  0.00D+00 EMaxC= 1.00D-01 BMatC= 1.24D-02 BMatP= 3.54D-02
 IDIUse=3 WtCom= 9.70D-01 WtEn= 3.01D-02
 Coeff-Com: -0.518D-01 0.106D+00-0.949D-01 0.300D+00 0.740D+00
 Coeff-En:   0.000D+00 0.000D+00 0.000D+00 0.000D+00 0.100D+01
 Coeff:     -0.503D-01 0.103D+00-0.920D-01 0.291D+00 0.748D+00
 Gap=     0.109 Goal=   None    Shift=    0.000
 RMSDP=1.31D-04 MaxDP=9.00D-03 DE=-2.31D-02 OVMax= 2.96D-02

 Cycle   6  Pass 1  IDiag  1:
 RMSU=  7.55D-05    CP:  1.01D+00  5.96D-01  5.01D-01  1.25D+00  1.12D+00
 E= -1759.61768057613     Delta-E=       -0.014279436840 Rises=F Damp=F
 DIIS: error= 1.21D-03 at cycle   6 NSaved=   6.
 NSaved= 6 IEnMin= 6 EnMin= -1759.61768057613     IErMin= 6 ErrMin= 1.21D-03
 ErrMax= 1.21D-03  0.00D+00 EMaxC= 1.00D-01 BMatC= 2.53D-03 BMatP= 1.24D-02
 IDIUse=3 WtCom= 9.88D-01 WtEn= 1.21D-02
 Coeff-Com: -0.186D-01 0.361D-01-0.106D+00 0.788D-02 0.364D+00 0.717D+00
 Coeff-En:   0.000D+00 0.000D+00 0.000D+00 0.000D+00 0.000D+00 0.100D+01
 Coeff:     -0.184D-01 0.357D-01-0.105D+00 0.778D-02 0.359D+00 0.720D+00
 Gap=     0.085 Goal=   None    Shift=    0.000
 RMSDP=7.57D-05 MaxDP=6.20D-03 DE=-1.43D-02 OVMax= 1.16D-02

 Cycle   7  Pass 1  IDiag  1:
 RMSU=  3.68D-05    CP:  1.01D+00  6.17D-01  4.69D-01  1.31D+00  1.39D+00
                    CP:  1.20D+00
 E= -1759.62105073894     Delta-E=       -0.003370162811 Rises=F Damp=F
 DIIS: error= 6.27D-04 at cycle   7 NSaved=   7.
 NSaved= 7 IEnMin= 7 EnMin= -1759.62105073894     IErMin= 7 ErrMin= 6.27D-04
 ErrMax= 6.27D-04  0.00D+00 EMaxC= 1.00D-01 BMatC= 3.70D-04 BMatP= 2.53D-03
 IDIUse=3 WtCom= 9.94D-01 WtEn= 6.27D-03
 Coeff-Com: -0.180D-02 0.892D-02-0.363D-01-0.414D-01 0.498D-03 0.307D+00
 Coeff-Com:  0.763D+00
 Coeff-En:   0.000D+00 0.000D+00 0.000D+00 0.000D+00 0.000D+00 0.000D+00
 Coeff-En:   0.100D+01
 Coeff:     -0.179D-02 0.886D-02-0.361D-01-0.412D-01 0.495D-03 0.305D+00
 Coeff:      0.764D+00
 Gap=     0.079 Goal=   None    Shift=    0.000
 RMSDP=3.61D-05 MaxDP=3.04D-03 DE=-3.37D-03 OVMax= 8.07D-03

 Cycle   8  Pass 1  IDiag  1:
 RMSU=  1.79D-05    CP:  1.01D+00  6.26D-01  4.53D-01  1.35D+00  1.47D+00
                    CP:  1.43D+00  1.03D+00
 E= -1759.62157532984     Delta-E=       -0.000524590896 Rises=F Damp=F
 DIIS: error= 5.42D-04 at cycle   8 NSaved=   8.
 NSaved= 8 IEnMin= 8 EnMin= -1759.62157532984     IErMin= 8 ErrMin= 5.42D-04
 ErrMax= 5.42D-04  0.00D+00 EMaxC= 1.00D-01 BMatC= 8.56D-05 BMatP= 3.70D-04
 IDIUse=3 WtCom= 9.95D-01 WtEn= 5.42D-03
 Coeff-Com:  0.148D-02 0.825D-03-0.103D-03-0.159D-01-0.727D-01 0.284D-02
 Coeff-Com:  0.466D+00 0.618D+00
 Coeff-En:   0.000D+00 0.000D+00 0.000D+00 0.000D+00 0.000D+00 0.000D+00
 Coeff-En:   0.000D+00 0.100D+01
 Coeff:      0.148D-02 0.821D-03-0.102D-03-0.158D-01-0.723D-01 0.283D-02
 Coeff:      0.463D+00 0.620D+00
 Gap=     0.079 Goal=   None    Shift=    0.000
 RMSDP=1.32D-05 MaxDP=9.78D-04 DE=-5.25D-04 OVMax= 3.49D-03

 Cycle   9  Pass 1  IDiag  1:
 RMSU=  8.36D-06    CP:  1.01D+00  6.28D-01  4.49D-01  1.35D+00  1.49D+00
                    CP:  1.47D+00  1.19D+00  7.80D-01
 E= -1759.62166300901     Delta-E=       -0.000087679172 Rises=F Damp=F
 DIIS: error= 1.94D-04 at cycle   9 NSaved=   9.
 NSaved= 9 IEnMin= 9 EnMin= -1759.62166300901     IErMin= 9 ErrMin= 1.94D-04
 ErrMax= 1.94D-04  0.00D+00 EMaxC= 1.00D-01 BMatC= 1.06D-05 BMatP= 8.56D-05
 IDIUse=3 WtCom= 9.98D-01 WtEn= 1.94D-03
 Coeff-Com:  0.676D-03-0.356D-03 0.574D-02 0.152D-02-0.324D-01-0.565D-01
 Coeff-Com:  0.109D+00 0.328D+00 0.644D+00
 Coeff-En:   0.000D+00 0.000D+00 0.000D+00 0.000D+00 0.000D+00 0.000D+00
 Coeff-En:   0.000D+00 0.000D+00 0.100D+01
 Coeff:      0.675D-03-0.355D-03 0.573D-02 0.152D-02-0.324D-01-0.564D-01
 Coeff:      0.109D+00 0.328D+00 0.644D+00
 Gap=     0.079 Goal=   None    Shift=    0.000
 RMSDP=4.06D-06 MaxDP=2.74D-04 DE=-8.77D-05 OVMax= 1.19D-03

 Cycle  10  Pass 1  IDiag  1:
 RMSU=  3.14D-06    CP:  1.01D+00  6.28D-01  4.48D-01  1.35D+00  1.49D+00
                    CP:  1.49D+00  1.22D+00  8.96D-01  9.32D-01
 E= -1759.62167211581     Delta-E=       -0.000009106796 Rises=F Damp=F
 DIIS: error= 6.15D-05 at cycle  10 NSaved=  10.
 NSaved=10 IEnMin=10 EnMin= -1759.62167211581     IErMin=10 ErrMin= 6.15D-05
 ErrMax= 6.15D-05  0.00D+00 EMaxC= 1.00D-01 BMatC= 1.91D-06 BMatP= 1.06D-05
 IDIUse=1 WtCom= 1.00D+00 WtEn= 0.00D+00
 Coeff-Com: -0.191D-04 0.218D-04 0.312D-02 0.394D-02-0.400D-02-0.313D-01
 Coeff-Com: -0.113D-01 0.864D-01 0.349D+00 0.604D+00
 Coeff:     -0.191D-04 0.218D-04 0.312D-02 0.394D-02-0.400D-02-0.313D-01
 Coeff:     -0.113D-01 0.864D-01 0.349D+00 0.604D+00
 Gap=     0.080 Goal=   None    Shift=    0.000
 RMSDP=1.65D-06 MaxDP=1.15D-04 DE=-9.11D-06 OVMax= 4.41D-04

 Cycle  11  Pass 1  IDiag  1:
 RMSU=  1.22D-06    CP:  1.01D+00  6.28D-01  4.49D-01  1.35D+00  1.49D+00
                    CP:  1.49D+00  1.23D+00  9.11D-01  1.00D+00  8.31D-01
 E= -1759.62167390473     Delta-E=       -0.000001788921 Rises=F Damp=F
 DIIS: error= 1.18D-05 at cycle  11 NSaved=  11.
 NSaved=11 IEnMin=11 EnMin= -1759.62167390473     IErMin=11 ErrMin= 1.18D-05
 ErrMax= 1.18D-05  0.00D+00 EMaxC= 1.00D-01 BMatC= 1.53D-07 BMatP= 1.91D-06
 IDIUse=1 WtCom= 1.00D+00 WtEn= 0.00D+00
 Coeff-Com: -0.118D-03 0.924D-04 0.603D-03 0.125D-02 0.303D-02-0.586D-02
 Coeff-Com: -0.182D-01-0.602D-02 0.485D-01 0.231D+00 0.745D+00
 Coeff:     -0.118D-03 0.924D-04 0.603D-03 0.125D-02 0.303D-02-0.586D-02
 Coeff:     -0.182D-01-0.602D-02 0.485D-01 0.231D+00 0.745D+00
 Gap=     0.080 Goal=   None    Shift=    0.000
 RMSDP=6.74D-07 MaxDP=3.10D-05 DE=-1.79D-06 OVMax= 3.08D-04

 Cycle  12  Pass 1  IDiag  1:
 RMSU=  4.68D-07    CP:  1.01D+00  6.28D-01  4.49D-01  1.35D+00  1.49D+00
                    CP:  1.48D+00  1.23D+00  9.18D-01  1.03D+00  9.37D-01
                    CP:  1.05D+00
 E= -1759.62167411591     Delta-E=       -0.000000211186 Rises=F Damp=F
 DIIS: error= 3.24D-06 at cycle  12 NSaved=  12.
 NSaved=12 IEnMin=12 EnMin= -1759.62167411591     IErMin=12 ErrMin= 3.24D-06
 ErrMax= 3.24D-06  0.00D+00 EMaxC= 1.00D-01 BMatC= 2.52D-08 BMatP= 1.53D-07
 IDIUse=1 WtCom= 1.00D+00 WtEn= 0.00D+00
 Coeff-Com: -0.121D-04-0.120D-04-0.257D-03-0.383D-03 0.169D-02 0.258D-02
 Coeff-Com: -0.526D-02-0.165D-01-0.409D-01-0.122D-01 0.295D+00 0.776D+00
 Coeff:     -0.121D-04-0.120D-04-0.257D-03-0.383D-03 0.169D-02 0.258D-02
 Coeff:     -0.526D-02-0.165D-01-0.409D-01-0.122D-01 0.295D+00 0.776D+00
 Gap=     0.080 Goal=   None    Shift=    0.000
 RMSDP=3.37D-07 MaxDP=1.84D-05 DE=-2.11D-07 OVMax= 2.15D-04

 Cycle  13  Pass 1  IDiag  1:
 RMSU=  1.97D-07    CP:  1.01D+00  6.28D-01  4.49D-01  1.35D+00  1.49D+00
                    CP:  1.49D+00  1.23D+00  9.21D-01  1.04D+00  9.72D-01
                    CP:  1.20D+00  1.18D+00
 E= -1759.62167416091     Delta-E=       -0.000000044999 Rises=F Damp=F
 DIIS: error= 1.81D-06 at cycle  13 NSaved=  13.
 NSaved=13 IEnMin=13 EnMin= -1759.62167416091     IErMin=13 ErrMin= 1.81D-06
 ErrMax= 1.81D-06  0.00D+00 EMaxC= 1.00D-01 BMatC= 4.64D-09 BMatP= 2.52D-08
 IDIUse=1 WtCom= 1.00D+00 WtEn= 0.00D+00
 Coeff-Com:  0.770D-05-0.169D-04-0.159D-03-0.286D-03 0.379D-03 0.175D-02
 Coeff-Com: -0.386D-03-0.692D-02-0.242D-01-0.322D-01 0.490D-01 0.374D+00
 Coeff-Com:  0.639D+00
 Coeff:      0.770D-05-0.169D-04-0.159D-03-0.286D-03 0.379D-03 0.175D-02
 Coeff:     -0.386D-03-0.692D-02-0.242D-01-0.322D-01 0.490D-01 0.374D+00
 Coeff:      0.639D+00
 Gap=     0.080 Goal=   None    Shift=    0.000
 RMSDP=1.26D-07 MaxDP=8.27D-06 DE=-4.50D-08 OVMax= 9.17D-05

 Cycle  14  Pass 1  IDiag  1:
 RMSU=  8.83D-08    CP:  1.01D+00  6.28D-01  4.49D-01  1.35D+00  1.49D+00
                    CP:  1.49D+00  1.23D+00  9.21D-01  1.04D+00  9.84D-01
                    CP:  1.23D+00  1.30D+00  1.08D+00
 E= -1759.62167416833     Delta-E=       -0.000000007422 Rises=F Damp=F
 DIIS: error= 5.08D-07 at cycle  14 NSaved=  14.
 NSaved=14 IEnMin=14 EnMin= -1759.62167416833     IErMin=14 ErrMin= 5.08D-07
 ErrMax= 5.08D-07  0.00D+00 EMaxC= 1.00D-01 BMatC= 5.27D-10 BMatP= 4.64D-09
 IDIUse=1 WtCom= 1.00D+00 WtEn= 0.00D+00
 Coeff-Com:  0.387D-05-0.684D-06-0.384D-04-0.639D-04-0.839D-04 0.501D-03
 Coeff-Com:  0.832D-03-0.346D-03-0.381D-02-0.118D-01-0.274D-01 0.353D-01
 Coeff-Com:  0.248D+00 0.759D+00
 Coeff:      0.387D-05-0.684D-06-0.384D-04-0.639D-04-0.839D-04 0.501D-03
 Coeff:      0.832D-03-0.346D-03-0.381D-02-0.118D-01-0.274D-01 0.353D-01
 Coeff:      0.248D+00 0.759D+00
 Gap=     0.080 Goal=   None    Shift=    0.000
 RMSDP=7.86D-08 MaxDP=5.93D-06 DE=-7.42D-09 OVMax= 6.32D-05

 Cycle  15  Pass 1  IDiag  1:
 RMSU=  3.25D-08    CP:  1.01D+00  6.28D-01  4.49D-01  1.35D+00  1.49D+00
                    CP:  1.49D+00  1.23D+00  9.22D-01  1.04D+00  9.89D-01
                    CP:  1.25D+00  1.38D+00  1.27D+00  1.30D+00
 E= -1759.62167417021     Delta-E=       -0.000000001880 Rises=F Damp=F
 DIIS: error= 2.13D-07 at cycle  15 NSaved=  15.
 NSaved=15 IEnMin=15 EnMin= -1759.62167417021     IErMin=15 ErrMin= 2.13D-07
 ErrMax= 2.13D-07  0.00D+00 EMaxC= 1.00D-01 BMatC= 6.45D-11 BMatP= 5.27D-10
 IDIUse=1 WtCom= 1.00D+00 WtEn= 0.00D+00
 Coeff-Com:  0.887D-07 0.353D-06 0.824D-05 0.174D-04-0.615D-04-0.489D-04
 Coeff-Com:  0.187D-03 0.643D-03 0.185D-02 0.288D-03-0.142D-01-0.346D-01
 Coeff-Com: -0.133D-02 0.236D+00 0.812D+00
 Coeff:      0.887D-07 0.353D-06 0.824D-05 0.174D-04-0.615D-04-0.489D-04
 Coeff:      0.187D-03 0.643D-03 0.185D-02 0.288D-03-0.142D-01-0.346D-01
 Coeff:     -0.133D-02 0.236D+00 0.812D+00
 Gap=     0.080 Goal=   None    Shift=    0.000
 RMSDP=4.53D-08 MaxDP=3.74D-06 DE=-1.88D-09 OVMax= 4.02D-05

 Cycle  16  Pass 1  IDiag  1:
 RMSU=  1.47D-08    CP:  1.01D+00  6.28D-01  4.49D-01  1.35D+00  1.49D+00
                    CP:  1.49D+00  1.23D+00  9.22D-01  1.04D+00  9.92D-01
                    CP:  1.26D+00  1.42D+00  1.38D+00  1.55D+00  1.48D+00
 E= -1759.62167417077     Delta-E=       -0.000000000558 Rises=F Damp=F
 DIIS: error= 1.39D-07 at cycle  16 NSaved=  16.
 NSaved=16 IEnMin=16 EnMin= -1759.62167417077     IErMin=16 ErrMin= 1.39D-07
 ErrMax= 1.39D-07  0.00D+00 EMaxC= 1.00D-01 BMatC= 1.66D-11 BMatP= 6.45D-11
 IDIUse=1 WtCom= 1.00D+00 WtEn= 0.00D+00
 Coeff-Com: -0.834D-06 0.851D-06 0.865D-05 0.135D-04-0.386D-05-0.913D-04
 Coeff-Com: -0.869D-04 0.272D-03 0.129D-02 0.224D-02 0.144D-02-0.177D-01
 Coeff-Com: -0.523D-01-0.101D+00 0.292D+00 0.874D+00
 Coeff:     -0.834D-06 0.851D-06 0.865D-05 0.135D-04-0.386D-05-0.913D-04
 Coeff:     -0.869D-04 0.272D-03 0.129D-02 0.224D-02 0.144D-02-0.177D-01
 Coeff:     -0.523D-01-0.101D+00 0.292D+00 0.874D+00
 Gap=     0.080 Goal=   None    Shift=    0.000
 RMSDP=3.23D-08 MaxDP=2.70D-06 DE=-5.58D-10 OVMax= 2.90D-05

 Cycle  17  Pass 1  IDiag  1:
 RMSU=  6.11D-09    CP:  1.01D+00  6.28D-01  4.49D-01  1.35D+00  1.49D+00
                    CP:  1.49D+00  1.23D+00  9.22D-01  1.05D+00  9.94D-01
                    CP:  1.27D+00  1.45D+00  1.45D+00  1.75D+00  1.89D+00
                    CP:  1.35D+00
 E= -1759.62167417098     Delta-E=       -0.000000000204 Rises=F Damp=F
 DIIS: error= 6.29D-08 at cycle  17 NSaved=  17.
 NSaved=17 IEnMin=17 EnMin= -1759.62167417098     IErMin=17 ErrMin= 6.29D-08
 ErrMax= 6.29D-08  0.00D+00 EMaxC= 1.00D-01 BMatC= 2.76D-12 BMatP= 1.66D-11
 IDIUse=1 WtCom= 1.00D+00 WtEn= 0.00D+00
 Coeff-Com: -0.238D-06 0.755D-07 0.131D-05 0.111D-05 0.893D-05-0.225D-04
 Coeff-Com: -0.677D-04-0.403D-04 0.774D-04 0.732D-03 0.305D-02 0.120D-02
 Coeff-Com: -0.159D-01-0.759D-01-0.600D-01 0.249D+00 0.898D+00
 Coeff:     -0.238D-06 0.755D-07 0.131D-05 0.111D-05 0.893D-05-0.225D-04
 Coeff:     -0.677D-04-0.403D-04 0.774D-04 0.732D-03 0.305D-02 0.120D-02
 Coeff:     -0.159D-01-0.759D-01-0.600D-01 0.249D+00 0.898D+00
 Gap=     0.080 Goal=   None    Shift=    0.000
 RMSDP=1.69D-08 MaxDP=1.42D-06 DE=-2.04D-10 OVMax= 1.53D-05

 Cycle  18  Pass 1  IDiag  1:
 RMSU=  2.39D-09    CP:  1.01D+00  6.28D-01  4.49D-01  1.35D+00  1.49D+00
                    CP:  1.49D+00  1.23D+00  9.22D-01  1.05D+00  9.94D-01
                    CP:  1.28D+00  1.46D+00  1.49D+00  1.85D+00  2.11D+00
                    CP:  1.66D+00  1.42D+00
 E= -1759.62167417107     Delta-E=       -0.000000000095 Rises=F Damp=F
 DIIS: error= 2.79D-08 at cycle  18 NSaved=  18.
 NSaved=18 IEnMin=18 EnMin= -1759.62167417107     IErMin=18 ErrMin= 2.79D-08
 ErrMax= 2.79D-08  0.00D+00 EMaxC= 1.00D-01 BMatC= 7.95D-13 BMatP= 2.76D-12
 IDIUse=1 WtCom= 1.00D+00 WtEn= 0.00D+00
 Coeff-Com:  0.993D-07-0.173D-06-0.144D-05-0.195D-05 0.499D-05 0.973D-05
 Coeff-Com: -0.949D-05-0.848D-04-0.258D-03-0.150D-03 0.930D-03 0.461D-02
 Coeff-Com:  0.411D-02-0.110D-01-0.940D-01-0.839D-01 0.383D+00 0.797D+00
 Coeff:      0.993D-07-0.173D-06-0.144D-05-0.195D-05 0.499D-05 0.973D-05
 Coeff:     -0.949D-05-0.848D-04-0.258D-03-0.150D-03 0.930D-03 0.461D-02
 Coeff:      0.411D-02-0.110D-01-0.940D-01-0.839D-01 0.383D+00 0.797D+00
 Gap=     0.080 Goal=   None    Shift=    0.000
 RMSDP=8.13D-09 MaxDP=6.79D-07 DE=-9.46D-11 OVMax= 7.32D-06

 SCF Done:  E(RM062X) =  -1759.62167417     A.U. after   18 cycles
            NFock= 18  Conv=0.81D-08     -V/T= 2.0041
 KE= 1.752497517086D+03 PE=-8.314863700313D+03 EE= 2.688803431658D+03
 Leave Link  502 at Fri May 16 10:01:06 2025, MaxMem=   268435456 cpu:            5399.3 elap:             540.0
 (Enter /opt/g16/l601.exe)
 Copying SCF densities to generalized density rwf, IOpCl= 0 IROHF=0.

 **********************************************************************

            Population analysis using the SCF density.

 **********************************************************************

 Alpha  occ. eigenvalues -- -147.18006 -19.90426 -19.86348 -19.82074 -19.81857
 Alpha  occ. eigenvalues --  -16.28706 -15.16035 -15.04978 -15.03382 -13.39492
 Alpha  occ. eigenvalues --  -13.39479 -13.39425 -10.95012 -10.81710 -10.80983
 Alpha  occ. eigenvalues --  -10.80385 -10.79117 -10.78410 -10.77612 -10.76570
 Alpha  occ. eigenvalues --  -10.76511 -10.76120 -10.75633 -10.75515 -10.74353
 Alpha  occ. eigenvalues --  -10.73543 -10.73420 -10.72566  -2.37370  -1.60626
 Alpha  occ. eigenvalues --   -1.60534  -1.59942  -1.52905  -1.46650  -1.39733
 Alpha  occ. eigenvalues --   -1.34181  -1.33838  -1.28778  -1.19176  -1.15200
 Alpha  occ. eigenvalues --   -1.12991  -1.09337  -1.07156  -1.04941  -1.03319
 Alpha  occ. eigenvalues --   -1.01618  -0.98321  -0.97505  -0.91638  -0.90814
 Alpha  occ. eigenvalues --   -0.90537  -0.87898  -0.86852  -0.85003  -0.83445
 Alpha  occ. eigenvalues --   -0.82476  -0.81509  -0.81340  -0.78932  -0.78267
 Alpha  occ. eigenvalues --   -0.77298  -0.76792  -0.75289  -0.74470  -0.73641
 Alpha  occ. eigenvalues --   -0.72974  -0.71775  -0.70760  -0.70661  -0.69565
 Alpha  occ. eigenvalues --   -0.69420  -0.68569  -0.67270  -0.66506  -0.65870
 Alpha  occ. eigenvalues --   -0.65299  -0.64021  -0.62178  -0.61541  -0.60982
 Alpha  occ. eigenvalues --   -0.60268  -0.57400  -0.55132  -0.54283  -0.53888
 Alpha  occ. eigenvalues --   -0.52952  -0.52207  -0.51138  -0.49745  -0.47687
 Alpha virt. eigenvalues --   -0.39722  -0.34881  -0.34796  -0.34231  -0.34031
 Alpha virt. eigenvalues --   -0.33197  -0.29896  -0.29413  -0.22803  -0.22233
 Alpha virt. eigenvalues --   -0.20293  -0.19424  -0.18645  -0.17665  -0.17285
 Alpha virt. eigenvalues --   -0.16608  -0.16269  -0.15674  -0.15321  -0.15029
 Alpha virt. eigenvalues --   -0.14699  -0.14361  -0.13874  -0.12634  -0.12185
 Alpha virt. eigenvalues --   -0.10317  -0.10150  -0.08812  -0.08498  -0.07672
 Alpha virt. eigenvalues --   -0.06481  -0.05952  -0.05245  -0.04864  -0.03987
 Alpha virt. eigenvalues --   -0.03595  -0.02347  -0.02276  -0.01418  -0.00918
 Alpha virt. eigenvalues --   -0.00188   0.00594   0.01467   0.02302   0.03085
 Alpha virt. eigenvalues --    0.04105   0.04341   0.05513   0.05727   0.06298
 Alpha virt. eigenvalues --    0.06827   0.07462   0.08451   0.08658   0.09213
 Alpha virt. eigenvalues --    0.09301   0.09640   0.10330   0.10366   0.11202
 Alpha virt. eigenvalues --    0.11335   0.12090   0.12558   0.12624   0.12860
 Alpha virt. eigenvalues --    0.13344   0.14264   0.14520   0.14728   0.15001
 Alpha virt. eigenvalues --    0.15844   0.16243   0.16584   0.16822   0.16933
 Alpha virt. eigenvalues --    0.17586   0.17781   0.18068   0.18253   0.18549
 Alpha virt. eigenvalues --    0.18941   0.19365   0.19765   0.19933   0.20539
 Alpha virt. eigenvalues --    0.20559   0.20930   0.21242   0.21885   0.21926
 Alpha virt. eigenvalues --    0.22685   0.23382   0.23905   0.23977   0.24250
 Alpha virt. eigenvalues --    0.24414   0.25286   0.25530   0.25787   0.25976
 Alpha virt. eigenvalues --    0.26739   0.27035   0.28071   0.28374   0.28761
 Alpha virt. eigenvalues --    0.29010   0.29335   0.30123   0.30293   0.30902
 Alpha virt. eigenvalues --    0.31517   0.31974   0.32112   0.32509   0.33022
 Alpha virt. eigenvalues --    0.33304   0.33623   0.33841   0.34420   0.34765
 Alpha virt. eigenvalues --    0.34907   0.35648   0.36043   0.36487   0.36723
 Alpha virt. eigenvalues --    0.37849   0.38648   0.38835   0.39749   0.40119
 Alpha virt. eigenvalues --    0.40434   0.41322   0.41698   0.42101   0.42540
 Alpha virt. eigenvalues --    0.43636   0.44322   0.44807   0.45185   0.45778
 Alpha virt. eigenvalues --    0.46313   0.46758   0.48067   0.48771   0.49010
 Alpha virt. eigenvalues --    0.49578   0.50084   0.50902   0.51310   0.51910
 Alpha virt. eigenvalues --    0.52195   0.53037   0.54094   0.54324   0.54761
 Alpha virt. eigenvalues --    0.54974   0.55919   0.56073   0.56279   0.56472
 Alpha virt. eigenvalues --    0.56827   0.57595   0.57829   0.58737   0.59504
 Alpha virt. eigenvalues --    0.59910   0.60890   0.61110   0.61648   0.61793
 Alpha virt. eigenvalues --    0.62659   0.63219   0.63715   0.63960   0.64326
 Alpha virt. eigenvalues --    0.64941   0.65906   0.66119   0.67771   0.68415
 Alpha virt. eigenvalues --    0.69094   0.69557   0.70752   0.70787   0.71219
 Alpha virt. eigenvalues --    0.72057   0.72707   0.73537   0.73785   0.74542
 Alpha virt. eigenvalues --    0.75701   0.76422   0.76884   0.77382   0.77468
 Alpha virt. eigenvalues --    0.78416   0.78933   0.79813   0.81040   0.81605
 Alpha virt. eigenvalues --    0.82039   0.83181   0.83857   0.84200   0.84804
 Alpha virt. eigenvalues --    0.85797   0.86217   0.86380   0.87081   0.88634
 Alpha virt. eigenvalues --    0.89206   0.89513   0.90146   0.90785   0.91817
 Alpha virt. eigenvalues --    0.92323   0.93498   0.95114   0.95432   0.95986
 Alpha virt. eigenvalues --    0.96671   0.96757   0.98026   0.98623   0.99208
 Alpha virt. eigenvalues --    0.99435   1.00068   1.00182   1.02589   1.03332
 Alpha virt. eigenvalues --    1.03945   1.05442   1.05951   1.06519   1.06551
 Alpha virt. eigenvalues --    1.07259   1.08185   1.08440   1.09043   1.09855
 Alpha virt. eigenvalues --    1.10164   1.11051   1.11479   1.11666   1.12579
 Alpha virt. eigenvalues --    1.13365   1.13574   1.14410   1.14869   1.15956
 Alpha virt. eigenvalues --    1.16125   1.16684   1.17224   1.17748   1.18412
 Alpha virt. eigenvalues --    1.19592   1.20340   1.20727   1.21290   1.22323
 Alpha virt. eigenvalues --    1.22747   1.23594   1.23808   1.24412   1.25181
 Alpha virt. eigenvalues --    1.26131   1.26892   1.27484   1.27992   1.30041
 Alpha virt. eigenvalues --    1.30178   1.30413   1.31762   1.32149   1.32803
 Alpha virt. eigenvalues --    1.33793   1.34619   1.35657   1.36905   1.37096
 Alpha virt. eigenvalues --    1.37217   1.37879   1.38538   1.40596   1.41311
 Alpha virt. eigenvalues --    1.42095   1.42687   1.43119   1.44021   1.45589
 Alpha virt. eigenvalues --    1.46704   1.47800   1.48868   1.51300   1.51775
 Alpha virt. eigenvalues --    1.52510   1.53388   1.54364   1.55061   1.56215
 Alpha virt. eigenvalues --    1.57593   1.59058   1.60872   1.61627   1.63253
 Alpha virt. eigenvalues --    1.65359   1.66155   1.68244   1.69321   1.70545
 Alpha virt. eigenvalues --    1.72914   1.73546   1.75231   1.75668   1.76188
 Alpha virt. eigenvalues --    1.76950   1.77978   1.79567   1.80886   1.83683
 Alpha virt. eigenvalues --    1.84569   1.85612   1.86983   1.88161   1.88955
 Alpha virt. eigenvalues --    1.89308   1.90524   1.91550   1.93188   1.93660
 Alpha virt. eigenvalues --    1.95047   1.97064   1.97571   1.98887   1.99646
 Alpha virt. eigenvalues --    2.00294   2.01198   2.02563   2.03077   2.03631
 Alpha virt. eigenvalues --    2.04652   2.05090   2.05912   2.08038   2.08763
 Alpha virt. eigenvalues --    2.09764   2.10739   2.12154   2.12637   2.13391
 Alpha virt. eigenvalues --    2.13655   2.14692   2.15213   2.16492   2.18411
 Alpha virt. eigenvalues --    2.19462   2.20615   2.21021   2.22145   2.22514
 Alpha virt. eigenvalues --    2.23152   2.23829   2.24825   2.25536   2.25601
 Alpha virt. eigenvalues --    2.26701   2.28523   2.28710   2.29890   2.30733
 Alpha virt. eigenvalues --    2.31889   2.34269   2.34331   2.34904   2.35364
 Alpha virt. eigenvalues --    2.35797   2.36473   2.37208   2.38139   2.38527
 Alpha virt. eigenvalues --    2.40103   2.40793   2.41605   2.43132   2.43983
 Alpha virt. eigenvalues --    2.44212   2.45664   2.46638   2.47192   2.47694
 Alpha virt. eigenvalues --    2.48895   2.49739   2.51131   2.51858   2.52375
 Alpha virt. eigenvalues --    2.53085   2.54156   2.54308   2.54940   2.54958
 Alpha virt. eigenvalues --    2.55490   2.55967   2.56724   2.57426   2.57621
 Alpha virt. eigenvalues --    2.58643   2.59008   2.60205   2.61293   2.61939
 Alpha virt. eigenvalues --    2.62327   2.62713   2.63315   2.65016   2.65843
 Alpha virt. eigenvalues --    2.66073   2.67027   2.67117   2.67743   2.68847
 Alpha virt. eigenvalues --    2.70176   2.70817   2.71794   2.72373   2.72638
 Alpha virt. eigenvalues --    2.73585   2.74678   2.74986   2.75540   2.76720
 Alpha virt. eigenvalues --    2.77502   2.77675   2.78281   2.79117   2.79893
 Alpha virt. eigenvalues --    2.80403   2.80558   2.81234   2.81702   2.82202
 Alpha virt. eigenvalues --    2.82647   2.83403   2.83822   2.84630   2.84804
 Alpha virt. eigenvalues --    2.85573   2.86048   2.86243   2.86817   2.87042
 Alpha virt. eigenvalues --    2.87942   2.88362   2.88497   2.89177   2.89659
 Alpha virt. eigenvalues --    2.89953   2.90658   2.91129   2.91320   2.91800
 Alpha virt. eigenvalues --    2.92324   2.92380   2.93210   2.93434   2.94176
 Alpha virt. eigenvalues --    2.95032   2.95644   2.96014   2.96646   2.97677
 Alpha virt. eigenvalues --    2.98427   2.98797   2.99614   2.99872   3.00785
 Alpha virt. eigenvalues --    3.01377   3.02087   3.02662   3.03300   3.03580
 Alpha virt. eigenvalues --    3.04602   3.05624   3.05948   3.06499   3.07546
 Alpha virt. eigenvalues --    3.08972   3.09418   3.10170   3.11319   3.11439
 Alpha virt. eigenvalues --    3.11836   3.12681   3.12947   3.13994   3.14520
 Alpha virt. eigenvalues --    3.14678   3.15312   3.15929   3.16470   3.17003
 Alpha virt. eigenvalues --    3.17283   3.18388   3.18916   3.19305   3.19614
 Alpha virt. eigenvalues --    3.20129   3.20571   3.21574   3.22232   3.23108
 Alpha virt. eigenvalues --    3.23143   3.24757   3.25073   3.25763   3.26590
 Alpha virt. eigenvalues --    3.27560   3.27858   3.28746   3.30065   3.30781
 Alpha virt. eigenvalues --    3.31531   3.32994   3.33957   3.34913   3.35632
 Alpha virt. eigenvalues --    3.35845   3.38182   3.38831   3.40152   3.41233
 Alpha virt. eigenvalues --    3.42730   3.43102   3.44638   3.45298   3.46064
 Alpha virt. eigenvalues --    3.46338   3.46959   3.47211   3.47444   3.49998
 Alpha virt. eigenvalues --    3.50432   3.51025   3.51519   3.51933   3.52618
 Alpha virt. eigenvalues --    3.53884   3.54608   3.54871   3.55564   3.56073
 Alpha virt. eigenvalues --    3.56521   3.57224   3.58298   3.58951   3.59737
 Alpha virt. eigenvalues --    3.60081   3.60547   3.61236   3.61722   3.62704
 Alpha virt. eigenvalues --    3.63265   3.63397   3.64105   3.64386   3.65096
 Alpha virt. eigenvalues --    3.65972   3.66322   3.66638   3.67317   3.68104
 Alpha virt. eigenvalues --    3.68394   3.69255   3.71100   3.71578   3.71697
 Alpha virt. eigenvalues --    3.73301   3.73473   3.74178   3.76045   3.77278
 Alpha virt. eigenvalues --    3.77807   3.78427   3.79374   3.79768   3.80628
 Alpha virt. eigenvalues --    3.81702   3.82472   3.83460   3.84017   3.84578
 Alpha virt. eigenvalues --    3.85147   3.85750   3.86228   3.86810   3.88257
 Alpha virt. eigenvalues --    3.89202   3.89707   3.90229   3.90673   3.91219
 Alpha virt. eigenvalues --    3.91866   3.93130   3.93444   3.93898   3.94399
 Alpha virt. eigenvalues --    3.95714   3.96941   3.97216   3.97823   3.98360
 Alpha virt. eigenvalues --    3.98770   4.00177   4.00500   4.01686   4.02207
 Alpha virt. eigenvalues --    4.02822   4.03128   4.04316   4.04989   4.06042
 Alpha virt. eigenvalues --    4.07283   4.07485   4.07892   4.08207   4.08793
 Alpha virt. eigenvalues --    4.09186   4.09712   4.10132   4.11125   4.11708
 Alpha virt. eigenvalues --    4.12129   4.12618   4.13269   4.13953   4.14822
 Alpha virt. eigenvalues --    4.15331   4.17975   4.18423   4.20012   4.20602
 Alpha virt. eigenvalues --    4.23670   4.23870   4.25516   4.26868   4.27625
 Alpha virt. eigenvalues --    4.29509   4.32122   4.33929   4.34161   4.36367
 Alpha virt. eigenvalues --    4.37488   4.38377   4.38851   4.39583   4.41477
 Alpha virt. eigenvalues --    4.42905   4.43109   4.43767   4.45292   4.46387
 Alpha virt. eigenvalues --    4.47120   4.48470   4.48741   4.49253   4.50072
 Alpha virt. eigenvalues --    4.50197   4.51152   4.51415   4.53064   4.55628
 Alpha virt. eigenvalues --    4.55996   4.57114   4.57977   4.58646   4.60183
 Alpha virt. eigenvalues --    4.60995   4.61672   4.63406   4.65208   4.65759
 Alpha virt. eigenvalues --    4.66029   4.67309   4.68854   4.70133   4.71032
 Alpha virt. eigenvalues --    4.71228   4.72228   4.72703   4.75160   4.75719
 Alpha virt. eigenvalues --    4.76628   4.77313   4.79366   4.80068   4.80871
 Alpha virt. eigenvalues --    4.83891   4.84927   4.85852   4.86376   4.86994
 Alpha virt. eigenvalues --    4.87662   4.88440   4.89967   4.91381   4.92071
 Alpha virt. eigenvalues --    4.93041   4.95227   4.97317   4.98478   5.00096
 Alpha virt. eigenvalues --    5.00277   5.00905   5.02342   5.02466   5.04698
 Alpha virt. eigenvalues --    5.06179   5.07605   5.08562   5.09821   5.11792
 Alpha virt. eigenvalues --    5.13470   5.14687   5.16562   5.18549   5.18617
 Alpha virt. eigenvalues --    5.19135   5.20728   5.21326   5.22988   5.23840
 Alpha virt. eigenvalues --    5.24642   5.28753   5.29417   5.31220   5.33427
 Alpha virt. eigenvalues --    5.34358   5.35364   5.36167   5.40549   5.41545
 Alpha virt. eigenvalues --    5.43266   5.43772   5.45511   5.47325   5.48743
 Alpha virt. eigenvalues --    5.49240   5.52684   5.55294   5.56675   5.59537
 Alpha virt. eigenvalues --    5.62079   5.68283   5.69003   5.70001   5.70490
 Alpha virt. eigenvalues --    5.73530   5.74999   5.75588   5.76869   5.79316
 Alpha virt. eigenvalues --    5.81210   5.84022   5.85540   5.87360   5.92928
 Alpha virt. eigenvalues --    5.96133   6.01545   6.06704   6.07485   6.10756
 Alpha virt. eigenvalues --    6.13902   6.15706   6.20087   6.20561   6.22526
 Alpha virt. eigenvalues --    6.25247   6.26468   6.28309   6.31323   6.38703
 Alpha virt. eigenvalues --    6.39276   6.39910   6.41204   6.43348   6.52052
 Alpha virt. eigenvalues --    6.54317   6.57793   6.61893   6.65757   6.68719
 Alpha virt. eigenvalues --    6.69855   6.71607   6.73111   6.83637   6.87506
 Alpha virt. eigenvalues --    6.91712   6.92082   7.03355   7.04237   7.09360
 Alpha virt. eigenvalues --    7.19003   7.37908   8.34049   8.51814   9.41654
 Alpha virt. eigenvalues --    9.91519  10.65925  11.84309  11.99391  12.09426
 Alpha virt. eigenvalues --   12.16735  12.19053  12.44970  12.47125  12.68165
 Alpha virt. eigenvalues --   12.72263  12.83293  12.89749  13.11535  13.53826
 Alpha virt. eigenvalues --   13.61352  13.66486  14.04741  15.21420  15.22438
          Condensed to atoms (all electrons):
               1          2          3          4          5          6
     1  Ca  18.159954   0.000977   0.003734   0.000631   0.000028   0.000238
     2  C    0.000977   4.948755   0.496610  -0.030462   0.434248   0.460959
     3  C    0.003734   0.496610   5.114705   0.424532  -0.051304  -0.052327
     4  H    0.000631  -0.030462   0.424532   0.507469  -0.006494   0.005990
     5  H    0.000028   0.434248  -0.051304  -0.006494   0.509519  -0.042182
     6  C    0.000238   0.460959  -0.052327   0.005990  -0.042182   4.971777
     7  H   -0.000033  -0.030313   0.004643  -0.000096  -0.005940   0.419670
     8  C    0.000077  -0.089383  -0.037998  -0.001830   0.006975   0.406341
     9  N   -0.000003   0.003288   0.000384   0.000020  -0.000104  -0.039735
    10  O   -0.000026   0.003247  -0.000053  -0.000001   0.000000   0.031410
    11  O    0.000154  -0.000112   0.000155  -0.000001   0.000006   0.005062
    12  C    0.000120  -0.023270  -0.068214   0.006070  -0.001121  -0.032426
    13  H   -0.000068  -0.001621   0.005916  -0.000088   0.000021   0.005702
    14  C    0.000446  -0.090724   0.353801  -0.077838   0.008286  -0.031691
    15  C    0.000865   0.001802  -0.060121   0.007963  -0.000201   0.001190
    16  N    0.008762   0.001845   0.016398   0.000361   0.000018   0.000084
    17  C   -0.028780   0.000051   0.001785   0.000140  -0.000001   0.000006
    18  O    0.227946  -0.000000  -0.000130  -0.000010   0.000000   0.000000
    19  H    0.007067  -0.000852   0.005501   0.000069   0.000035  -0.000302
    20  C   -0.000279  -0.001275  -0.002698   0.002258  -0.000003   0.000192
    21  H    0.000105  -0.000067   0.000837   0.000102   0.000001   0.000015
    22  C   -0.000820   0.000022  -0.000109  -0.000122   0.000000  -0.000001
    23  H   -0.000564   0.000002   0.000092  -0.000002   0.000000  -0.000000
    24  H    0.001448  -0.000003  -0.000091   0.000007  -0.000000   0.000001
    25  N   -0.002613  -0.000008  -0.000344   0.000122  -0.000000   0.000000
    26  C   -0.001746  -0.000000  -0.000034   0.000003  -0.000000   0.000000
    27  C    0.000142  -0.000000  -0.000008   0.000002  -0.000000   0.000000
    28  H    0.000070  -0.000000  -0.000010   0.000007  -0.000000   0.000000
    29  C    0.000798  -0.000000  -0.000000   0.000000  -0.000000  -0.000000
    30  H   -0.000025   0.000000   0.000000  -0.000000   0.000000  -0.000000
    31  C   -0.000402  -0.000000  -0.000000   0.000000  -0.000000   0.000000
    32  H    0.000038  -0.000000  -0.000000  -0.000000  -0.000000  -0.000000
    33  C    0.000597   0.000000   0.000000  -0.000000   0.000000  -0.000000
    34  H    0.000051  -0.000000  -0.000000   0.000000   0.000000   0.000000
    35  C   -0.001654   0.000000   0.000003  -0.000001   0.000000  -0.000000
    36  O    0.011608   0.000000   0.000000  -0.000000  -0.000000  -0.000000
    37  H   -0.000967  -0.000000  -0.000000   0.000000  -0.000000   0.000000
               7          8          9         10         11         12
     1  Ca  -0.000033   0.000077  -0.000003  -0.000026   0.000154   0.000120
     2  C   -0.030313  -0.089383   0.003288   0.003247  -0.000112  -0.023270
     3  C    0.004643  -0.037998   0.000384  -0.000053   0.000155  -0.068214
     4  H   -0.000096  -0.001830   0.000020  -0.000001  -0.000001   0.006070
     5  H   -0.005940   0.006975  -0.000104   0.000000   0.000006  -0.001121
     6  C    0.419670   0.406341  -0.039735   0.031410   0.005062  -0.032426
     7  H    0.454844  -0.040367  -0.006762   0.014597   0.000511   0.005404
     8  C   -0.040367   5.339726   0.262967  -0.112743  -0.128472   0.454635
     9  N   -0.006762   0.262967   5.521547   0.479786   0.480837  -0.052367
    10  O    0.014597  -0.112743   0.479786   7.932370  -0.112330   0.005408
    11  O    0.000511  -0.128472   0.480837  -0.112330   7.963277   0.037742
    12  C    0.005404   0.454635  -0.052367   0.005408   0.037742   5.067006
    13  H   -0.000130  -0.031690  -0.007104   0.000582   0.017316   0.408290
    14  C   -0.000492  -0.111882   0.003966   0.000129   0.005389   0.354771
    15  C    0.000048  -0.000930  -0.000300   0.000007   0.000090  -0.050324
    16  N   -0.000000  -0.000148  -0.000001  -0.000000   0.000002  -0.000112
    17  C    0.000000  -0.000042  -0.000000  -0.000000  -0.000000  -0.000190
    18  O    0.000000  -0.000001   0.000000  -0.000000  -0.000000   0.000011
    19  H   -0.000001  -0.000479   0.000007  -0.000000  -0.000013   0.003607
    20  C   -0.000000  -0.000856   0.000002  -0.000000   0.000001  -0.003441
    21  H   -0.000000   0.000017   0.000001  -0.000000  -0.000001   0.000494
    22  C    0.000000   0.000005  -0.000000   0.000000   0.000000  -0.000527
    23  H   -0.000000  -0.000004   0.000000   0.000000   0.000000  -0.000043
    24  H    0.000000   0.000014  -0.000000  -0.000000  -0.000000   0.000269
    25  N    0.000000  -0.000000   0.000000  -0.000000  -0.000000  -0.000010
    26  C    0.000000   0.000000  -0.000000  -0.000000  -0.000000   0.000030
    27  C    0.000000   0.000000  -0.000000  -0.000000  -0.000000   0.000001
    28  H    0.000000   0.000000  -0.000000  -0.000000  -0.000000   0.000001
    29  C    0.000000   0.000000  -0.000000  -0.000000   0.000000   0.000000
    30  H   -0.000000  -0.000000   0.000000  -0.000000   0.000000  -0.000000
    31  C    0.000000   0.000000  -0.000000   0.000000   0.000000   0.000000
    32  H   -0.000000   0.000000  -0.000000   0.000000   0.000000   0.000000
    33  C   -0.000000  -0.000000   0.000000  -0.000000  -0.000000  -0.000000
    34  H    0.000000   0.000000  -0.000000  -0.000000  -0.000000   0.000000
    35  C   -0.000000  -0.000000   0.000000   0.000000  -0.000000  -0.000003
    36  O   -0.000000   0.000000   0.000000  -0.000000  -0.000000  -0.000000
    37  H    0.000000  -0.000000   0.000000   0.000000  -0.000000  -0.000000
              13         14         15         16         17         18
     1  Ca  -0.000068   0.000446   0.000865   0.008762  -0.028780   0.227946
     2  C   -0.001621  -0.090724   0.001802   0.001845   0.000051  -0.000000
     3  C    0.005916   0.353801  -0.060121   0.016398   0.001785  -0.000130
     4  H   -0.000088  -0.077838   0.007963   0.000361   0.000140  -0.000010
     5  H    0.000021   0.008286  -0.000201   0.000018  -0.000001   0.000000
     6  C    0.005702  -0.031691   0.001190   0.000084   0.000006   0.000000
     7  H   -0.000130  -0.000492   0.000048  -0.000000   0.000000   0.000000
     8  C   -0.031690  -0.111882  -0.000930  -0.000148  -0.000042  -0.000001
     9  N   -0.007104   0.003966  -0.000300  -0.000001  -0.000000   0.000000
    10  O    0.000582   0.000129   0.000007  -0.000000  -0.000000  -0.000000
    11  O    0.017316   0.005389   0.000090   0.000002  -0.000000  -0.000000
    12  C    0.408290   0.354771  -0.050324  -0.000112  -0.000190   0.000011
    13  H    0.447380  -0.047601   0.004026   0.000042  -0.000023   0.000003
    14  C   -0.047601   5.368898   0.409294  -0.100631  -0.001396  -0.000156
    15  C    0.004026   0.409294   5.104620   0.283756  -0.037114   0.003571
    16  N    0.000042  -0.100631   0.283756   6.478774   0.444839  -0.086882
    17  C   -0.000023  -0.001396  -0.037114   0.444839   4.371925   0.425679
    18  O    0.000003  -0.000156   0.003571  -0.086882   0.425679   8.054886
    19  H    0.000207   0.016952  -0.040592   0.365848  -0.036305  -0.012162
    20  C    0.001425  -0.041476   0.509218  -0.090693  -0.027527   0.000126
    21  H    0.000239  -0.001001  -0.044151   0.002974   0.000546   0.000014
    22  C   -0.000048   0.003970  -0.074485   0.006103  -0.043068   0.000534
    23  H    0.000009  -0.000447   0.006225   0.000078   0.002179  -0.000075
    24  H   -0.000022   0.000205  -0.002039   0.001691   0.001342   0.000076
    25  N    0.000007   0.000983  -0.007236  -0.087138   0.517938  -0.070475
    26  C    0.000001   0.000132   0.002168   0.001862  -0.067705  -0.008838
    27  C   -0.000000   0.000024   0.000383  -0.000255   0.003420  -0.001751
    28  H   -0.000000   0.000015   0.000270  -0.000208   0.001552  -0.000298
    29  C   -0.000000  -0.000000   0.000011  -0.000016   0.000568  -0.000123
    30  H    0.000000  -0.000000  -0.000000  -0.000000  -0.000007  -0.000001
    31  C    0.000000   0.000000  -0.000001   0.000007  -0.000148   0.000046
    32  H   -0.000000  -0.000000   0.000000  -0.000000  -0.000000  -0.000000
    33  C   -0.000000  -0.000000   0.000001  -0.000061  -0.000274  -0.000635
    34  H    0.000000   0.000000   0.000000   0.000000   0.000000  -0.000007
    35  C   -0.000000  -0.000007  -0.000325  -0.001174  -0.002887   0.004329
    36  O   -0.000000  -0.000005   0.000065  -0.001123   0.015604  -0.001814
    37  H    0.000000   0.000000  -0.000005   0.000023  -0.000678   0.000092
              19         20         21         22         23         24
     1  Ca   0.007067  -0.000279   0.000105  -0.000820  -0.000564   0.001448
     2  C   -0.000852  -0.001275  -0.000067   0.000022   0.000002  -0.000003
     3  C    0.005501  -0.002698   0.000837  -0.000109   0.000092  -0.000091
     4  H    0.000069   0.002258   0.000102  -0.000122  -0.000002   0.000007
     5  H    0.000035  -0.000003   0.000001   0.000000   0.000000  -0.000000
     6  C   -0.000302   0.000192   0.000015  -0.000001  -0.000000   0.000001
     7  H   -0.000001  -0.000000  -0.000000   0.000000  -0.000000   0.000000
     8  C   -0.000479  -0.000856   0.000017   0.000005  -0.000004   0.000014
     9  N    0.000007   0.000002   0.000001  -0.000000   0.000000  -0.000000
    10  O   -0.000000  -0.000000  -0.000000   0.000000   0.000000  -0.000000
    11  O   -0.000013   0.000001  -0.000001   0.000000   0.000000  -0.000000
    12  C    0.003607  -0.003441   0.000494  -0.000527  -0.000043   0.000269
    13  H    0.000207   0.001425   0.000239  -0.000048   0.000009  -0.000022
    14  C    0.016952  -0.041476  -0.001001   0.003970  -0.000447   0.000205
    15  C   -0.040592   0.509218  -0.044151  -0.074485   0.006225  -0.002039
    16  N    0.365848  -0.090693   0.002974   0.006103   0.000078   0.001691
    17  C   -0.036305  -0.027527   0.000546  -0.043068   0.002179   0.001342
    18  O   -0.012162   0.000126   0.000014   0.000534  -0.000075   0.000076
    19  H    0.488535   0.007446  -0.000240  -0.000988   0.000060   0.000003
    20  C    0.007446   5.123602   0.406406   0.343860  -0.045772  -0.043560
    21  H   -0.000240   0.406406   0.456870  -0.022985  -0.004090   0.000439
    22  C   -0.000988   0.343860  -0.022985   4.905602   0.435075   0.403980
    23  H    0.000060  -0.045772  -0.004090   0.435075   0.506689  -0.035017
    24  H    0.000003  -0.043560   0.000439   0.403980  -0.035017   0.528612
    25  N    0.003384  -0.002736   0.002350   0.256250  -0.037482  -0.054491
    26  C   -0.000134   0.004367  -0.000080  -0.044469   0.000967   0.009445
    27  C    0.000020   0.000409   0.000028  -0.008796  -0.006816   0.005204
    28  H    0.000002   0.000513   0.000034  -0.002727  -0.003231   0.000674
    29  C   -0.000001  -0.000013   0.000001  -0.000199  -0.000415   0.000215
    30  H    0.000000  -0.000002  -0.000000   0.000024   0.000051  -0.000007
    31  C    0.000001   0.000006   0.000000  -0.000184  -0.000108  -0.000015
    32  H   -0.000000   0.000000  -0.000000   0.000000  -0.000002   0.000001
    33  C   -0.000002  -0.000014  -0.000001   0.000252   0.000206  -0.000601
    34  H    0.000000  -0.000001   0.000000   0.000005  -0.000000   0.000016
    35  C   -0.000058   0.000501  -0.000003  -0.002760  -0.000322  -0.004792
    36  O   -0.000110  -0.000234  -0.000004   0.002012   0.000098   0.002907
    37  H    0.000006   0.000013   0.000000  -0.000146   0.000003  -0.000142
              25         26         27         28         29         30
     1  Ca  -0.002613  -0.001746   0.000142   0.000070   0.000798  -0.000025
     2  C   -0.000008  -0.000000  -0.000000  -0.000000  -0.000000   0.000000
     3  C   -0.000344  -0.000034  -0.000008  -0.000010  -0.000000   0.000000
     4  H    0.000122   0.000003   0.000002   0.000007   0.000000  -0.000000
     5  H   -0.000000  -0.000000  -0.000000  -0.000000  -0.000000   0.000000
     6  C    0.000000   0.000000   0.000000   0.000000  -0.000000  -0.000000
     7  H    0.000000   0.000000   0.000000   0.000000   0.000000  -0.000000
     8  C   -0.000000   0.000000   0.000000   0.000000   0.000000  -0.000000
     9  N    0.000000  -0.000000  -0.000000  -0.000000  -0.000000   0.000000
    10  O   -0.000000  -0.000000  -0.000000  -0.000000  -0.000000  -0.000000
    11  O   -0.000000  -0.000000  -0.000000  -0.000000   0.000000   0.000000
    12  C   -0.000010   0.000030   0.000001   0.000001   0.000000  -0.000000
    13  H    0.000007   0.000001  -0.000000  -0.000000  -0.000000   0.000000
    14  C    0.000983   0.000132   0.000024   0.000015  -0.000000  -0.000000
    15  C   -0.007236   0.002168   0.000383   0.000270   0.000011  -0.000000
    16  N   -0.087138   0.001862  -0.000255  -0.000208  -0.000016  -0.000000
    17  C    0.517938  -0.067705   0.003420   0.001552   0.000568  -0.000007
    18  O   -0.070475  -0.008838  -0.001751  -0.000298  -0.000123  -0.000001
    19  H    0.003384  -0.000134   0.000020   0.000002  -0.000001   0.000000
    20  C   -0.002736   0.004367   0.000409   0.000513  -0.000013  -0.000002
    21  H    0.002350  -0.000080   0.000028   0.000034   0.000001  -0.000000
    22  C    0.256250  -0.044469  -0.008796  -0.002727  -0.000199   0.000024
    23  H   -0.037482   0.000967  -0.006816  -0.003231  -0.000415   0.000051
    24  H   -0.054491   0.009445   0.005204   0.000674   0.000215  -0.000007
    25  N    6.437009   0.230964  -0.050949   0.001854   0.006736  -0.000155
    26  C    0.230964   5.433227   0.392978  -0.094008  -0.091533   0.011447
    27  C   -0.050949   0.392978   4.987162   0.444094   0.508544  -0.048269
    28  H    0.001854  -0.094008   0.444094   0.520487  -0.024425  -0.007866
    29  C    0.006736  -0.091533   0.508544  -0.024425   4.900346   0.435310
    30  H   -0.000155   0.011447  -0.048269  -0.007866   0.435310   0.513679
    31  C   -0.001165  -0.042504  -0.036561   0.008045   0.488220  -0.045871
    32  H    0.000014  -0.000461   0.005841  -0.000183  -0.040854  -0.005664
    33  C    0.009348  -0.056053  -0.061547  -0.002288  -0.054980   0.006910
    34  H   -0.000250   0.007408   0.000682   0.000048   0.003395  -0.000179
    35  C   -0.022919   0.392549  -0.027481   0.007519  -0.020606  -0.001265
    36  O    0.000686  -0.097446   0.003204  -0.000119  -0.000458   0.000006
    37  H   -0.000242   0.010154   0.000256   0.000037  -0.000168  -0.000006
              31         32         33         34         35         36
     1  Ca  -0.000402   0.000038   0.000597   0.000051  -0.001654   0.011608
     2  C   -0.000000  -0.000000   0.000000  -0.000000   0.000000   0.000000
     3  C   -0.000000  -0.000000   0.000000  -0.000000   0.000003   0.000000
     4  H    0.000000  -0.000000  -0.000000   0.000000  -0.000001  -0.000000
     5  H   -0.000000  -0.000000   0.000000   0.000000   0.000000  -0.000000
     6  C    0.000000  -0.000000  -0.000000   0.000000  -0.000000  -0.000000
     7  H    0.000000  -0.000000  -0.000000   0.000000  -0.000000  -0.000000
     8  C    0.000000   0.000000  -0.000000   0.000000  -0.000000   0.000000
     9  N   -0.000000  -0.000000   0.000000  -0.000000   0.000000   0.000000
    10  O    0.000000   0.000000  -0.000000  -0.000000   0.000000  -0.000000
    11  O    0.000000   0.000000  -0.000000  -0.000000  -0.000000  -0.000000
    12  C    0.000000   0.000000  -0.000000   0.000000  -0.000003  -0.000000
    13  H    0.000000  -0.000000  -0.000000   0.000000  -0.000000  -0.000000
    14  C    0.000000  -0.000000  -0.000000   0.000000  -0.000007  -0.000005
    15  C   -0.000001   0.000000   0.000001   0.000000  -0.000325   0.000065
    16  N    0.000007  -0.000000  -0.000061   0.000000  -0.001174  -0.001123
    17  C   -0.000148  -0.000000  -0.000274   0.000000  -0.002887   0.015604
    18  O    0.000046  -0.000000  -0.000635  -0.000007   0.004329  -0.001814
    19  H    0.000001  -0.000000  -0.000002   0.000000  -0.000058  -0.000110
    20  C    0.000006   0.000000  -0.000014  -0.000001   0.000501  -0.000234
    21  H    0.000000  -0.000000  -0.000001   0.000000  -0.000003  -0.000004
    22  C   -0.000184   0.000000   0.000252   0.000005  -0.002760   0.002012
    23  H   -0.000108  -0.000002   0.000206  -0.000000  -0.000322   0.000098
    24  H   -0.000015   0.000001  -0.000601   0.000016  -0.004792   0.002907
    25  N   -0.001165   0.000014   0.009348  -0.000250  -0.022919   0.000686
    26  C   -0.042504  -0.000461  -0.056053   0.007408   0.392549  -0.097446
    27  C   -0.036561   0.005841  -0.061547   0.000682  -0.027481   0.003204
    28  H    0.008045  -0.000183  -0.002288   0.000048   0.007519  -0.000119
    29  C    0.488220  -0.040854  -0.054980   0.003395  -0.020606  -0.000458
    30  H   -0.045871  -0.005664   0.006910  -0.000179  -0.001265   0.000006
    31  C    4.933026   0.426759   0.417560  -0.025619  -0.051592   0.007757
    32  H    0.426759   0.509889  -0.038413  -0.006725   0.005440  -0.000086
    33  C    0.417560  -0.038413   5.125989   0.421666   0.487013  -0.085489
    34  H   -0.025619  -0.006725   0.421666   0.537300  -0.059571  -0.004009
    35  C   -0.051592   0.005440   0.487013  -0.059571   4.724696   0.393110
    36  O    0.007757  -0.000086  -0.085489  -0.004009   0.393110   7.779443
    37  H    0.002305  -0.000019  -0.003454   0.005090  -0.047481   0.341577
              37
     1  Ca  -0.000967
     2  C   -0.000000
     3  C   -0.000000
     4  H    0.000000
     5  H   -0.000000
     6  C    0.000000
     7  H    0.000000
     8  C   -0.000000
     9  N    0.000000
    10  O    0.000000
    11  O   -0.000000
    12  C   -0.000000
    13  H    0.000000
    14  C    0.000000
    15  C   -0.000005
    16  N    0.000023
    17  C   -0.000678
    18  O    0.000092
    19  H    0.000006
    20  C    0.000013
    21  H    0.000000
    22  C   -0.000146
    23  H    0.000003
    24  H   -0.000142
    25  N   -0.000242
    26  C    0.010154
    27  C    0.000256
    28  H    0.000037
    29  C   -0.000168
    30  H   -0.000006
    31  C    0.002305
    32  H   -0.000019
    33  C   -0.003454
    34  H    0.005090
    35  C   -0.047481
    36  O    0.341577
    37  H    0.401856
 Mulliken charges:
               1
     1  Ca   1.612122
     2  C   -0.083713
     3  C   -0.155655
     4  H    0.161198
     5  H    0.148213
     6  C   -0.109973
     7  H    0.184418
     8  C    0.086066
     9  N    0.353571
    10  O   -0.242383
    11  O   -0.269612
    12  C   -0.111808
    13  H    0.197230
    14  C   -0.021915
    15  C   -0.017748
    16  N   -0.245024
    17  C    0.458572
    18  O   -0.533954
    19  H    0.193490
    20  C   -0.139764
    21  H    0.201151
    22  C   -0.155262
    23  H    0.182658
    24  H    0.184235
    25  N   -0.129433
    26  C    0.007310
    27  C   -0.109961
    28  H    0.150145
    29  C   -0.110352
    30  H    0.141891
    31  C   -0.079561
    32  H    0.144425
    33  C   -0.165731
    34  H    0.120698
    35  C    0.229741
    36  O   -0.367178
    37  H    0.291895
 Sum of Mulliken charges =   2.00000
 Mulliken charges with hydrogens summed into heavy atoms:
               1
     1  Ca   1.612122
     2  C    0.064500
     3  C    0.005543
     6  C    0.074444
     8  C    0.086066
     9  N    0.353571
    10  O   -0.242383
    11  O   -0.269612
    12  C    0.085422
    14  C   -0.021915
    15  C   -0.017748
    16  N   -0.051535
    17  C    0.458572
    18  O   -0.533954
    20  C    0.061387
    22  C    0.211631
    25  N   -0.129433
    26  C    0.007310
    27  C    0.040183
    29  C    0.031539
    31  C    0.064864
    33  C   -0.045033
    35  C    0.229741
    36  O   -0.075283
 Electronic spatial extent (au):  <R**2>=          20847.9552
 Charge=              2.0000 electrons
 Dipole moment (field-independent basis, Debye):
    X=              2.4895    Y=             -9.6098    Z=              6.9427  Tot=             12.1139
 Quadrupole moment (field-independent basis, Debye-Ang):
   XX=           -143.0132   YY=            -59.1463   ZZ=            -88.7591
   XY=              0.9018   XZ=             20.4490   YZ=            -15.6958
 Traceless Quadrupole moment (field-independent basis, Debye-Ang):
   XX=            -46.0403   YY=             37.8266   ZZ=              8.2138
   XY=              0.9018   XZ=             20.4490   YZ=            -15.6958
 Octapole moment (field-independent basis, Debye-Ang**2):
  XXX=            310.4607  YYY=            441.6616  ZZZ=          -1134.9679  XYY=            135.6978
  XXY=            231.2480  XXZ=           -542.1427  XZZ=            187.7581  YZZ=            175.6867
  YYZ=           -376.9873  XYZ=             29.1049
 Hexadecapole moment (field-independent basis, Debye-Ang**3):
 XXXX=          -2779.2690 YYYY=          -7660.3751 ZZZZ=         -13537.6742 XXXY=            705.5463
 XXXZ=           2382.8467 YYYX=            226.0415 YYYZ=            616.9156 ZZZX=           2609.4047
 ZZZY=            138.9415 XXYY=          -1842.3400 XXZZ=          -3460.2303 YYZZ=          -3511.4342
 XXYZ=             48.8199 YYXZ=            736.5540 ZZXY=            587.4167
 N-N= 2.113941077398D+03 E-N=-8.314863698604D+03  KE= 1.752497517086D+03
[...]
   649. RY*(  20) C  26                  0.00001     3.66636   
   650. RY*(  21) C  26                  0.00001     3.67971   
   651. RY*(  22) C  26                  0.00001     3.50106   
   652. RY*(  23) C  26                  0.00001     3.57888   
   653. RY*(  24) C  26                  0.00001     3.38338   
   654. RY*(  25) C  26                  0.00001     3.33016   
   655. RY*(   1) C  27                  0.00493     1.65908   
   656. RY*(   2) C  27                  0.00185     2.03367   
   657. RY*(   3) C  27                  0.00157     0.76844   
   658. RY*(   4) C  27                  0.00116     2.87639   
   659. RY*(   5) C  27                  0.00049     2.32914   
   660. RY*(   6) C  27                  0.00040     2.07920   
   661. RY*(   7) C  27                  0.00036     1.95867   
   662. RY*(   8) C  27                  0.00020     1.97959   
   663. RY*(   9) C  27                  0.00012     3.09317   
   664. RY*(  10) C  27                  0.00009     1.44947   
   665. RY*(  11) C  27                  0.00006     2.73119   
   666. RY*(  12) C  27                  0.00007     2.89666   
   667. RY*(  13) C  27                  0.00004     2.34978   
   668. RY*(  14) C  27                  0.00001     3.78733   
   669. RY*(  15) C  27                  0.00001     3.13883   
   670. RY*(  16) C  27                  0.00001     2.73465   
   671. RY*(  17) C  27                  0.00001     2.12424   
   672. RY*(  18) C  27                  0.00000     3.23665   
   673. RY*(  19) C  27                  0.00000     3.29931   
   674. RY*(  20) C  27                  0.00000     3.92244   
   675. RY*(  21) C  27                  0.00000     3.32915   
   676. RY*(  22) C  27                  0.00000     3.66491   
   677. RY*(  23) C  27                  0.00001     3.73110   
   678. RY*(  24) C  27                  0.00000     3.23971   
   679. RY*(  25) C  27                  0.00000     3.55545   
   680. RY*(   1) H  28                  0.00071     1.02285   
   681. RY*(   2) H  28                  0.00027     2.60470   
   682. RY*(   3) H  28                  0.00016     1.82259   
   683. RY*(   4) H  28                  0.00009     1.98409   
   684. RY*(   5) H  28                  0.00005     2.92029   
   685. RY*(   6) H  28                  0.00006     4.14228   
   686. RY*(   7) H  28                  0.00001     5.06233   
   687. RY*(   8) H  28                  0.00001     3.81097   
   688. RY*(   9) H  28                  0.00001     3.38574   
   689. RY*(  10) H  28                  0.00000     3.69511   
   690. RY*(  11) H  28                  0.00001     3.89765   
   691. RY*(  12) H  28                  0.00000     3.68230   
   692. RY*(  13) H  28                  0.00000     3.63767   
   693. RY*(   1) C  29                  0.00549     1.50047   
   694. RY*(   2) C  29                  0.00179     2.48066   
   695. RY*(   3) C  29                  0.00135     0.41632   
   696. RY*(   4) C  29                  0.00078     1.90213   
   697. RY*(   5) C  29                  0.00062     2.32946   
   698. RY*(   6) C  29                  0.00029     2.98204   
   699. RY*(   7) C  29                  0.00026     1.75345   
   700. RY*(   8) C  29                  0.00016     2.74576   
   701. RY*(   9) C  29                  0.00006     1.42040   
   702. RY*(  10) C  29                  0.00006     2.60578   
   703. RY*(  11) C  29                  0.00003     3.03073   
   704. RY*(  12) C  29                  0.00003     2.83214   
   705. RY*(  13) C  29                  0.00001     2.06568   
   706. RY*(  14) C  29                  0.00000     3.73778   
   707. RY*(  15) C  29                  0.00000     3.21325   
   708. RY*(  16) C  29                  0.00001     3.45969   
   709. RY*(  17) C  29                  0.00000     1.89243   
   710. RY*(  18) C  29                  0.00000     1.23644   
   711. RY*(  19) C  29                  0.00000     3.53523   
   712. RY*(  20) C  29                  0.00000     3.89810   
   713. RY*(  21) C  29                  0.00000     3.43562   
   714. RY*(  22) C  29                  0.00000     3.54631   
   715. RY*(  23) C  29                  0.00000     3.59843   
   716. RY*(  24) C  29                  0.00000     3.36099   
   717. RY*(  25) C  29                  0.00000     3.71011   
   718. RY*(   1) H  30                  0.00052     1.02817   
   719. RY*(   2) H  30                  0.00027     2.57041   
   720. RY*(   3) H  30                  0.00017     1.72997   
   721. RY*(   4) H  30                  0.00010     1.96314   
   722. RY*(   5) H  30                  0.00006     4.43913   
   723. RY*(   6) H  30                  0.00004     3.10413   
   724. RY*(   7) H  30                  0.00000     3.69755   
   725. RY*(   8) H  30                  0.00001     4.60246   
   726. RY*(   9) H  30                  0.00000     3.60353   
   727. RY*(  10) H  30                  0.00000     3.65704   
   728. RY*(  11) H  30                  0.00000     3.61588   
   729. RY*(  12) H  30                  0.00000     3.86771   
   730. RY*(  13) H  30                  0.00000     3.54590   
   731. RY*(   1) C  31                  0.00520     1.51009   
   732. RY*(   2) C  31                  0.00192     2.52839   
   733. RY*(   3) C  31                  0.00088     1.65449   
   734. RY*(   4) C  31                  0.00085     0.72217   
   735. RY*(   5) C  31                  0.00070     2.20228   
   736. RY*(   6) C  31                  0.00037     3.00931   
   737. RY*(   7) C  31                  0.00021     1.89120   
   738. RY*(   8) C  31                  0.00015     3.28829   
   739. RY*(   9) C  31                  0.00007     2.48055   
   740. RY*(  10) C  31                  0.00004     1.21574   
   741. RY*(  11) C  31                  0.00003     3.01938   
   742. RY*(  12) C  31                  0.00000     3.11365   
   743. RY*(  13) C  31                  0.00001     2.43629   
   744. RY*(  14) C  31                  0.00001     3.45289   
   745. RY*(  15) C  31                  0.00001     2.89232   
   746. RY*(  16) C  31                  0.00001     2.35226   
   747. RY*(  17) C  31                  0.00000     1.12400   
   748. RY*(  18) C  31                  0.00000     3.26830   
   749. RY*(  19) C  31                  0.00000     3.45526   
   750. RY*(  20) C  31                  0.00000     3.70348   
   751. RY*(  21) C  31                  0.00000     3.48612   
   752. RY*(  22) C  31                  0.00001     3.49838   
   753. RY*(  23) C  31                  0.00000     3.67325   
   754. RY*(  24) C  31                  0.00000     3.37204   
   755. RY*(  25) C  31                  0.00000     3.45234   
   756. RY*(   1) H  32                  0.00047     1.10352   
   757. RY*(   2) H  32                  0.00025     2.58964   
   758. RY*(   3) H  32                  0.00016     1.68256   
   759. RY*(   4) H  32                  0.00008     2.07472   
   760. RY*(   5) H  32                  0.00006     4.33897   
   761. RY*(   6) H  32                  0.00004     3.04093   
   762. RY*(   7) H  32                  0.00000     3.68554   
   763. RY*(   8) H  32                  0.00000     3.74754   
   764. RY*(   9) H  32                  0.00000     3.60908   
   765. RY*(  10) H  32                  0.00000     3.47094   
   766. RY*(  11) H  32                  0.00001     5.09453   
   767. RY*(  12) H  32                  0.00000     3.60524   
   768. RY*(  13) H  32                  0.00001     3.41877   
   769. RY*(   1) C  33                  0.00474     1.65613   
   770. RY*(   2) C  33                  0.00177     1.81802   
   771. RY*(   3) C  33                  0.00114     1.64426   
   772. RY*(   4) C  33                  0.00111     1.11168   
   773. RY*(   5) C  33                  0.00051     2.77001   
   774. RY*(   6) C  33                  0.00030     2.22093   
   775. RY*(   7) C  33                  0.00026     2.75215   
   776. RY*(   8) C  33                  0.00018     2.28171   
   777. RY*(   9) C  33                  0.00014     1.38988   
   778. RY*(  10) C  33                  0.00009     2.53987   
   779. RY*(  11) C  33                  0.00006     2.40692   
   780. RY*(  12) C  33                  0.00004     2.43767   
   781. RY*(  13) C  33                  0.00001     1.88714   
   782. RY*(  14) C  33                  0.00000     4.10135   
   783. RY*(  15) C  33                  0.00001     2.28391   
   784. RY*(  16) C  33                  0.00001     2.09314   
   785. RY*(  17) C  33                  0.00000     3.62422   
   786. RY*(  18) C  33                  0.00000     3.24247   
   787. RY*(  19) C  33                  0.00000     3.36262   
   788. RY*(  20) C  33                  0.00000     3.86839   
   789. RY*(  21) C  33                  0.00001     3.30507   
   790. RY*(  22) C  33                  0.00001     3.54388   
   791. RY*(  23) C  33                  0.00000     3.68144   
   792. RY*(  24) C  33                  0.00000     3.42701   
   793. RY*(  25) C  33                  0.00000     3.58822   
   794. RY*(   1) H  34                  0.00089     0.92472   
   795. RY*(   2) H  34                  0.00027     2.62969   
   796. RY*(   3) H  34                  0.00020     1.67072   
   797. RY*(   4) H  34                  0.00012     1.89171   
   798. RY*(   5) H  34                  0.00006     4.07765   
   799. RY*(   6) H  34                  0.00004     3.40094   
   800. RY*(   7) H  34                  0.00001     5.32695   
   801. RY*(   8) H  34                  0.00000     3.61380   
   802. RY*(   9) H  34                  0.00000     3.34088   
   803. RY*(  10) H  34                  0.00001     3.65118   
   804. RY*(  11) H  34                  0.00000     3.87648   
   805. RY*(  12) H  34                  0.00000     3.45666   
   806. RY*(  13) H  34                  0.00000     3.42583   
   807. RY*(   1) C  35                  0.00589     1.22279   
   808. RY*(   2) C  35                  0.00279     1.60274   
   809. RY*(   3) C  35                  0.00262     2.01574   
   810. RY*(   4) C  35                  0.00181     2.72369   
   811. RY*(   5) C  35                  0.00113     2.38692   
   812. RY*(   6) C  35                  0.00107     0.76974   
   813. RY*(   7) C  35                  0.00062     3.24478   
   814. RY*(   8) C  35                  0.00049     1.79234   
   815. RY*(   9) C  35                  0.00034     2.07926   
   816. RY*(  10) C  35                  0.00029     2.92824   
   817. RY*(  11) C  35                  0.00014     2.71572   
   818. RY*(  12) C  35                  0.00008     2.50188   
   819. RY*(  13) C  35                  0.00004     3.38285   
   820. RY*(  14) C  35                  0.00005     2.79181   
   821. RY*(  15) C  35                  0.00004     3.37931   
   822. RY*(  16) C  35                  0.00001     2.89228   
   823. RY*(  17) C  35                  0.00002     2.73582   
   824. RY*(  18) C  35                  0.00001     2.27092   
   825. RY*(  19) C  35                  0.00001     3.03292   
   826. RY*(  20) C  35                  0.00001     3.41221   
   827. RY*(  21) C  35                  0.00000     3.33871   
   828. RY*(  22) C  35                  0.00001     3.81830   
   829. RY*(  23) C  35                  0.00000     3.46150   
   830. RY*(  24) C  35                  0.00000     3.35807   
   831. RY*(  25) C  35                  0.00000     3.61745   
   832. RY*(   1) O  36                  0.00213     0.71332   
   833. RY*(   2) O  36                  0.00100     1.16608   
   834. RY*(   3) O  36                  0.00030     3.03973   
   835. RY*(   4) O  36                  0.00012     1.36413   
   836. RY*(   5) O  36                  0.00009     3.03970   
   837. RY*(   6) O  36                  0.00006     4.28561   
   838. RY*(   7) O  36                  0.00004     2.67472   
   839. RY*(   8) O  36                  0.00003     4.77520   
   840. RY*(   9) O  36                  0.00002     4.16710   
   841. RY*(  10) O  36                  0.00000     6.09483   
   842. RY*(  11) O  36                  0.00000     6.73840   
   843. RY*(  12) O  36                  0.00000     6.11909   
   844. RY*(  13) O  36                  0.00000     4.27503   
   845. RY*(  14) O  36                  0.00000     5.76682   
   846. RY*(  15) O  36                  0.00000     2.68598   
   847. RY*(  16) O  36                  0.00000     6.21210   
   848. RY*(  17) O  36                  0.00001     3.97939   
   849. RY*(  18) O  36                  0.00000     6.16857   
   850. RY*(  19) O  36                  0.00000     5.56905   
   851. RY*(  20) O  36                  0.00000     5.30894   
   852. RY*(  21) O  36                  0.00000     5.31373   
   853. RY*(  22) O  36                  0.00000     5.32985   
   854. RY*(  23) O  36                  0.00000     5.40685   
   855. RY*(  24) O  36                  0.00000     5.29095   
   856. RY*(  25) O  36                  0.00000     4.85417   
   857. RY*(   1) H  37                  0.00190     1.35347   
   858. RY*(   2) H  37                  0.00108     1.82059   
   859. RY*(   3) H  37                  0.00066     0.72870   
   860. RY*(   4) H  37                  0.00032     1.78713   
   861. RY*(   5) H  37                  0.00007     2.97553   
   862. RY*(   6) H  37                  0.00001     3.06321   
   863. RY*(   7) H  37                  0.00001     3.99844   
   864. RY*(   8) H  37                  0.00001     3.70849   
   865. RY*(   9) H  37                  0.00001     3.34226   
   866. RY*(  10) H  37                  0.00001     4.05179   
   867. RY*(  11) H  37                  0.00002     3.39633   
   868. RY*(  12) H  37                  0.00000     3.88954   
   869. RY*(  13) H  37                  0.00000     4.10884   
   870. BD*(   1) C   2 - C   3          0.01357     0.38940   
   871. BD*(   2) C   2 - C   3          0.30617    -0.14948  886(v),878(v),128(g)
   872. BD*(   1) C   2 - H   5          0.01338     0.29889   
   873. BD*(   1) C   2 - C   6          0.01329     0.39502   
   874. BD*(   1) C   3 - H   4          0.01409     0.27122   
   875. BD*(   1) C   3 - C  14          0.02572     0.37283   
   876. BD*(   1) C   6 - H   7          0.01245     0.30830   
   877. BD*(   1) C   6 - C   8          0.02132     0.39599   
   878. BD*(   2) C   6 - C   8          0.33321    -0.14458  871(v),886(v),882(v),204(g)
   879. BD*(   1) C   8 - N   9          0.11749     0.13299  884(v),876(v),885(v),873(v)
                                                    98(r)
   880. BD*(   1) C   8 - C  12          0.02117     0.39362   
   881. BD*(   1) N   9 - O  10          0.05285     0.34140   
   882. BD*(   2) N   9 - O  10          0.57927    -0.26940  84(v),878(v),267(g),315(v)
                                                    290(g),306(g)
   883. BD*(   1) N   9 - O  11          0.05611     0.33770   
   884. BD*(   1) C  12 - H  13          0.01344     0.29923   
   885. BD*(   1) C  12 - C  14          0.02464     0.39336   
   886. BD*(   2) C  12 - C  14          0.33934    -0.15069  871(v),878(v),890(v),888(v)
                                                    342(g),889(v)
   887. BD*(   1) C  14 - C  15          0.03220     0.26803   
   888. BD*(   1) C  15 - N  16          0.04059     0.22309   
   889. BD*(   1) C  15 - C  20          0.02049     0.44529   
   890. BD*(   2) C  15 - C  20          0.10923    -0.12653  886(v),898(v)
   891. BD*(   1) N  16 - C  17          0.05432     0.24858   
   892. BD*(   1) N  16 - H  19          0.01819     0.14827   
   893. BD*(   1) C  17 - O  18          0.01801     0.32685   
   894. BD*(   1) C  17 - N  25          0.06751     0.26023   
   895. BD*(   1) C  20 - H  21          0.00961     0.28378   
   896. BD*(   1) C  20 - C  22          0.01218     0.22612   
   897. BD*(   1) C  22 - H  23          0.01508     0.23141   
   898. BD*(   1) C  22 - H  24          0.02800     0.21967   
   899. BD*(   1) C  22 - N  25          0.02559     0.13904   
   900. BD*(   1) N  25 - C  26          0.03243     0.22162   
   901. BD*(   1) C  26 - C  27          0.02186     0.39764   
   902. BD*(   2) C  26 - C  27          0.40607    -0.14616  913(v),908(v),657(g),899(v)
                                                    894(v),695(v)
   903. BD*(   1) C  26 - C  35          0.04151     0.37526   
   904. BD*(   1) C  27 - H  28          0.01252     0.29824   
   905. BD*(   1) C  27 - C  29          0.01215     0.41280   
   906. BD*(   1) C  29 - H  30          0.01282     0.32345   
   907. BD*(   1) C  29 - C  31          0.01335     0.41932   
   908. BD*(   2) C  29 - C  31          0.31418    -0.11696  913(v),902(v),695(g),734(g)
   909. BD*(   1) C  31 - H  32          0.01282     0.32239   
   910. BD*(   1) C  31 - C  33          0.01272     0.41285   
   911. BD*(   1) C  33 - H  34          0.01286     0.29189   
   912. BD*(   1) C  33 - C  35          0.02578     0.39543   
   913. BD*(   2) C  33 - C  35          0.37560    -0.14322  902(v),908(v),772(g),832(v)
                                                    812(g)
   914. BD*(   1) C  35 - O  36          0.01964     0.23361   
   915. BD*(   1) O  36 - H  37          0.00735     0.25933   
       -------------------------------
              Total Lewis  157.05908  ( 96.9977%)
        Valence non-Lewis    4.51992  (  2.7914%)
        Rydberg non-Lewis    0.34138  (  0.2108%)
       -------------------------------
            Total unit  2  161.92039  (100.0000%)
           Charge unit  2    0.07961
 Leave Link  607 at Fri May 16 10:01:12 2025, MaxMem=   268435456 cpu:              56.4 elap:               5.6
 (Enter /opt/g16/l9999.exe)
 1\1\GINC-JSOLORZA-DESKTOP\SP\RM062X\CC-pVTZ\C16H13Ca1N3O4(2+)\JSOLORZA
 \16-May-2025\0\\#p m062x/cc-pvtz pop=nboread Nosymm\\sp\\2,1\Ca,0,0.,0
 .,0.\C,0,0.232892,1.177177,6.074175\C,0,0.385926,-0.040304,5.415779\H,
 0,1.344843,-0.361549,5.004039\H,0,1.088181,1.830545,6.206315\C,0,-1.01
 9207,1.586777,6.527931\H,0,-1.17991,2.554102,6.988097\C,0,-2.09583,0.7
 38128,6.319729\N,0,-3.443022,1.175776,6.70718\O,0,-3.538377,2.148019,7
 .425445\O,0,-4.385133,0.538765,6.270405\C,0,-1.972725,-0.491864,5.6938
 22\H,0,-2.850147,-1.106426,5.543875\C,0,-0.72061,-0.879128,5.234402\C,
 0,-0.591308,-2.087951,4.380373\N,0,-0.512709,-1.766819,3.018129\C,0,-0
 .016758,-2.607113,2.076194\O,0,0.276758,-2.183875,0.934825\H,0,-0.6296
 31,-0.787198,2.756172\C,0,-0.559186,-3.364781,4.751388\H,0,-0.607537,-
 3.647643,5.794943\C,0,-0.436494,-4.429478,3.699933\H,0,0.224846,-5.230
 014,4.043067\H,0,-1.408627,-4.894471,3.466576\N,0,0.147409,-3.897008,2
 .455244\C,0,0.602462,-4.869172,1.512714\C,0,1.837948,-5.482658,1.69616
 3\H,0,2.471291,-5.148984,2.512811\C,0,2.281204,-6.458055,0.80764\H,0,3
 .26147,-6.899649,0.94223\C,0,1.470205,-6.81239,-0.267488\H,0,1.810942,
 -7.553708,-0.9848\C,0,0.227917,-6.213948,-0.452618\H,0,-0.411329,-6.48
 0114,-1.289303\C,0,-0.224915,-5.24201,0.442684\O,0,-1.429874,-4.643522
 ,0.326534\H,0,-1.849547,-4.93422,-0.506922\\Version=ES64L-G16RevA.03\H
 F=-1759.6216742\RMSD=8.130e-09\Dipole=3.0892254,4.1116457,-9.0819353\Q
 uadrupole=-34.2298695,28.1231135,6.106756,0.6704382,15.20334,-11.66947
 11\PG=C01 [X(C16H13Ca1N3O4)]\\@


 THERE'S A SUCKER BORN EVERY MINUTE

              -- PHINEAS TAYLOR (P.T.) BARNUM
 Job cpu time:       0 days  1 hours 31 minutes 45.5 seconds.
 Elapsed time:       0 days  0 hours  9 minutes 10.7 seconds.
 File lengths (MBytes):  RWF=    442 Int=      0 D2E=      0 Chk=     49 Scr=      1
 Normal termination of Gaussian 16 at Fri May 16 10:01:13 2025.
